96
Lattice="10.06659329004 0.0 0.0 0.0 9.968341479513 0.0 0.0 0.0 10.41546149931" Properties=species:S:1:pos:R:3:forces:R:3 pbc="T T T"
Hf 1.239609425487 1.151447891893 2.781802621379 -0.047264916657 -0.011683304256 -0.059276488143 
Hf 1.239609425487 1.151447891893 7.989530615223 -0.048088135835 -0.011479310029 -0.058853473522 
Hf 6.272903407003 1.151447891893 2.781802621379 -0.048288177261 -0.011452882361 -0.060135536656 
Hf 6.272903407003 1.151447891893 7.989530615223 -0.047417473237 -0.011703200678 -0.057924635797 
Hf 3.793684556028 8.816888312603 2.425925372465 0.047417473238 0.011703200682 0.057924635824 
Hf 3.793684556028 8.816888312603 7.633653366308 0.048288177264 0.011452882371 0.060135536633 
Hf 8.826978537543 8.816888312603 2.425925372465 0.048088135849 0.011479310009 0.058853473517 
Hf 8.826978537543 8.816888312603 7.633653366308 0.047264916661 0.011683304226 0.059276488129 
Hf 1.27703756527 8.816888312603 0.177938624457 0.048747366497 0.011363734673 -0.060207657943 
Hf 1.27703756527 8.816888312603 5.385666618301 0.047933103796 0.012093240936 -0.058109567791 
Hf 6.310331546786 8.816888312603 0.177938624457 0.046677687125 0.011261605614 -0.059435989474 
Hf 6.310331546786 8.816888312603 5.385666618301 0.047806326821 0.011619889428 -0.058918176097 
Hf 3.756256416245 1.151447891893 5.029789369387 -0.04780632682 -0.01161988944 0.058918176127 
Hf 3.756256416245 1.151447891893 10.23751736323 -0.046677687111 -0.01126160561 0.059435989441 
Hf 8.78955039776 1.151447891893 5.029789369387 -0.047933103807 -0.012093240941 0.058109567791 
Hf 8.78955039776 1.151447891893 10.23751736323 -0.048747366522 -0.011363734707 0.060207657949 
Hf 3.756256416245 3.832720210355 2.425925372465 -0.04722553725 0.011395593668 0.058835177421 
Hf 3.756256416245 3.832720210355 7.633653366308 -0.047187363156 0.011404204488 0.059163775301 
Hf 8.78955039776 3.832720210355 2.425925372465 -0.048314453569 0.011699159255 0.057875621571 
Hf 8.78955039776 3.832720210355 7.633653366308 -0.048251960709 0.011708586933 0.060147030262 
Hf 1.27703756527 6.135615994141 2.781802621379 0.048251960685 -0.011708586913 -0.060147030308 
Hf 1.27703756527 6.135615994141 7.989530615223 0.04831445356 -0.011699159235 -0.05787562154 
Hf 6.310331546786 6.135615994141 2.781802621379 0.04718736317 -0.011404204477 -0.059163775305 
Hf 6.310331546786 6.135615994141 7.989530615223 0.047225537261 -0.01139559366 -0.0588351774 
Hf 3.793684556028 6.135615994141 5.029789369387 0.048418694581 -0.011808673932 0.058533190525 
Hf 3.793684556028 6.135615994141 10.23751736323 0.047198264861 -0.011333271782 0.059829228518 
Hf 8.826978537543 6.135615994141 5.029789369387 0.047199063773 -0.011807370059 0.058399475979 
Hf 8.826978537543 6.135615994141 10.23751736323 0.048012244963 -0.011247465118 0.059753352615 
Hf 1.239609425487 3.832720210355 0.177938624457 -0.048012244954 0.011247465145 -0.059753352628 
Hf 1.239609425487 3.832720210355 5.385666618301 -0.047199063772 0.011807370071 -0.058399475957 
Hf 6.272903407003 3.832720210355 0.177938624457 -0.047198264874 0.011333271768 -0.05982922854 
Hf 6.272903407003 3.832720210355 5.385666618301 -0.048418694579 0.011808673934 -0.058533190501 
O 0.015046576838 0.22560929321 1.241328903817 0.010213912886 0.048790737398 -0.014759325803 
O 0.015046576838 0.22560929321 6.449056897661 0.000839431906 0.061619398564 0.000663669755 
O 5.048340558353 0.22560929321 1.241328903817 -0.018308213562 0.056157207945 -0.01154199446 
O 5.048340558353 0.22560929321 6.449056897661 -0.009916055742 0.064159609874 -0.00174862224 
O 5.018247404677 9.742726911287 3.966399090027 0.00991605574 -0.064159609875 0.001748622243 
O 5.018247404677 9.742726911287 9.174127083871 0.018308213561 -0.056157207945 0.011541994458 
O 10.051541386193 9.742726911287 3.966399090027 -0.000839431902 -0.061619398563 -0.000663669752 
O 10.051541386193 9.742726911287 9.174127083871 -0.010213912887 -0.048790737401 0.014759325802 
O 2.50160041392 9.742726911287 3.845192900739 0.010612568879 -0.045232725549 0.008129292162 
O 2.50160041392 9.742726911287 9.052920894583 0.007301875044 -0.058043017271 -0.018357357205 
O 7.534894395435 9.742726911287 3.845192900739 0.000131303954 -0.061592987533 -0.00142773065 
O 7.534894395435 9.742726911287 9.052920894583 0.002529440789 -0.065081297954 -0.010610984879 
O 2.531693567596 0.22560929321 1.362535093105 -0.002529440788 0.065081297951 0.010610984881 
O 2.531693567596 0.22560929321 6.570263086949 -0.000131303954 0.061592987532 0.001427730651 
O 7.564987549111 0.22560929321 1.362535093105 -0.007301875044 0.058043017269 0.018357357203 
O 7.564987549111 0.22560929321 6.570263086949 -0.01061256888 0.045232725546 -0.008129292162 
O 2.531693567596 4.758558809038 3.966399090027 -0.00275087693 -0.065651426818 0.003102440966 
O 2.531693567596 4.758558809038 9.174127083871 9.6716417e-05 -0.060983824058 0.009720211911 
O 7.564987549111 4.758558809038 3.966399090027 -0.007051116229 -0.059840684794 -0.002348349982 
O 7.564987549111 4.758558809038 9.174127083871 -0.010947423038 -0.042998618782 0.016915875638 
O 2.50160041392 5.209777395458 1.241328903817 0.010947423038 0.042998618785 -0.016915875641 
O 2.50160041392 5.209777395458 6.449056897661 0.007051116229 0.059840684797 0.002348349984 
O 7.534894395435 5.209777395458 1.241328903817 -9.6716419e-05 0.060983824061 -0.00972021191 
O 7.534894395435 5.209777395458 6.449056897661 0.002750876933 0.065651426819 -0.003102440966 
O 5.018247404677 5.209777395458 1.362535093105 0.010922420283 0.06319921797 0.012789351747 
O 5.018247404677 5.209777395458 6.570263086949 0.017045346487 0.057368508027 -0.001252678894 
O 10.051541386193 5.209777395458 1.362535093105 -0.001926483683 0.060353195643 0.015697930577 
O 10.051541386193 5.209777395458 6.570263086949 -0.008786780065 0.050482569487 -0.004890809179 
O 0.015046576838 4.758558809038 3.845192900739 0.008786780063 -0.050482569484 0.004890809181 
O 0.015046576838 4.758558809038 9.052920894583 0.001926483684 -0.060353195639 -0.01569793058 
O 5.048340558353 4.758558809038 3.845192900739 -0.017045346486 -0.057368508025 0.001252678892 
O 5.048340558353 4.758558809038 9.052920894583 -0.010922420284 -0.06319921797 -0.012789351748 
O 0.649279750745 7.066883430476 4.560998324063 0.011268387121 -0.004702122947 0.02326792554 
O 0.649279750745 7.066883430476 9.768726317907 0.012991899559 -0.005095116532 0.083229288779 
O 5.68257373226 7.066883430476 4.560998324063 0.001272427962 -0.010799417884 0.042462641322 
O 5.68257373226 7.066883430476 9.768726317907 -0.000378783944 -0.010816766998 0.064279434745 
O 4.384014230771 2.901452774021 0.646729669781 0.000378783944 0.010816766996 -0.064279434747 
O 4.384014230771 2.901452774021 5.854457663624 -0.00127242796 0.010799417882 -0.04246264132 
O 9.417308212286 2.901452774021 0.646729669781 -0.012991899561 0.005095116534 -0.083229288778 
O 9.417308212286 2.901452774021 5.854457663624 -0.01126838712 0.004702122949 -0.023267925537 
O 1.867367240013 2.901452774021 1.957134327141 0.000429841854 0.011066333476 0.055925404446 
O 1.867367240013 2.901452774021 7.164862320985 0.017296427995 0.003141104888 0.050118490796 
O 6.900661221528 2.901452774021 1.957134327141 -0.011534456454 0.012182778812 0.054512923794 
O 6.900661221528 2.901452774021 7.164862320985 -0.030880646185 0.005978499482 0.051602940528 
O 3.165926741502 7.066883430476 3.250593666703 0.030880646186 -0.005978499479 -0.051602940527 
O 3.165926741502 7.066883430476 8.458321660546 0.011534456454 -0.012182778814 -0.054512923795 
O 8.199220723018 7.066883430476 3.250593666703 -0.017296427993 -0.003141104889 -0.050118490795 
O 8.199220723018 7.066883430476 8.458321660546 -0.000429841852 -0.011066333477 -0.055925404447 
O 3.165926741502 7.885620876269 0.646729669781 0.021159964389 0.009414461527 -0.069899092936 
O 3.165926741502 7.885620876269 5.854457663624 0.019603381767 0.009188682825 -0.036911072181 
O 8.199220723018 7.885620876269 0.646729669781 -0.011125501711 0.006429873189 -0.077709041276 
O 8.199220723018 7.885620876269 5.854457663624 -0.009408284384 0.006483387744 -0.029480288074 
O 1.867367240013 2.082715328228 4.560998324063 0.009408284383 -0.006483387746 0.029480288076 
O 1.867367240013 2.082715328228 9.768726317907 0.011125501713 -0.00642987319 0.077709041272 
O 6.900661221528 2.082715328228 4.560998324063 -0.019603381767 -0.009188682825 0.03691107218 
O 6.900661221528 2.082715328228 9.768726317907 -0.021159964393 -0.009414461528 0.069899092935 
O 4.384014230771 2.082715328228 3.250593666703 0.003445121477 -0.008619481912 -0.051561101959 
O 4.384014230771 2.082715328228 8.458321660546 -0.003593546641 -0.012676939157 -0.05462981508 
O 9.417308212286 2.082715328228 3.250593666703 -0.007329295927 -0.011620251664 -0.052522067184 
O 9.417308212286 2.082715328228 8.458321660546 -0.008177564536 -0.010405509313 -0.055833344668 
O 0.649279750745 7.885620876269 1.957134327141 0.008177564539 0.010405509313 0.055833344667 
O 0.649279750745 7.885620876269 7.164862320985 0.007329295929 0.011620251662 0.052522067186 
O 5.68257373226 7.885620876269 1.957134327141 0.003593546639 0.012676939157 0.05462981508 
O 5.68257373226 7.885620876269 7.164862320985 -0.003445121473 0.008619481912 0.051561101958 
96
Lattice="10.058786091443 0.0 0.0 0.0 9.960575671829 0.0 0.0 0.0 10.407387539296" Properties=species:S:1:pos:R:3:forces:R:3 pbc="T T T"
Hf 1.239609425487 1.151447891893 2.781802621379 -0.047264916657 -0.011683304256 -0.059276488143 
Hf 1.239609425487 1.151447891893 7.989530615223 -0.048088135835 -0.011479310029 -0.058853473522 
Hf 6.272903407003 1.151447891893 2.781802621379 -0.048288177261 -0.011452882361 -0.060135536656 
Hf 6.272903407003 1.151447891893 7.989530615223 -0.047417473237 -0.011703200678 -0.057924635797 
Hf 3.793684556028 8.816888312603 2.425925372465 0.047417473238 0.011703200682 0.057924635824 
Hf 3.793684556028 8.816888312603 7.633653366308 0.048288177264 0.011452882371 0.060135536633 
Hf 8.826978537543 8.816888312603 2.425925372465 0.048088135849 0.011479310009 0.058853473517 
Hf 8.826978537543 8.816888312603 7.633653366308 0.047264916661 0.011683304226 0.059276488129 
Hf 1.27703756527 8.816888312603 0.177938624457 0.048747366497 0.011363734673 -0.060207657943 
Hf 1.27703756527 8.816888312603 5.385666618301 0.047933103796 0.012093240936 -0.058109567791 
Hf 6.310331546786 8.816888312603 0.177938624457 0.046677687125 0.011261605614 -0.059435989474 
Hf 6.310331546786 8.816888312603 5.385666618301 0.047806326821 0.011619889428 -0.058918176097 
Hf 3.756256416245 1.151447891893 5.029789369387 -0.04780632682 -0.01161988944 0.058918176127 
Hf 3.756256416245 1.151447891893 10.23751736323 -0.046677687111 -0.01126160561 0.059435989441 
Hf 8.78955039776 1.151447891893 5.029789369387 -0.047933103807 -0.012093240941 0.058109567791 
Hf 8.78955039776 1.151447891893 10.23751736323 -0.048747366522 -0.011363734707 0.060207657949 
Hf 3.756256416245 3.832720210355 2.425925372465 -0.04722553725 0.011395593668 0.058835177421 
Hf 3.756256416245 3.832720210355 7.633653366308 -0.047187363156 0.011404204488 0.059163775301 
Hf 8.78955039776 3.832720210355 2.425925372465 -0.048314453569 0.011699159255 0.057875621571 
Hf 8.78955039776 3.832720210355 7.633653366308 -0.048251960709 0.011708586933 0.060147030262 
Hf 1.27703756527 6.135615994141 2.781802621379 0.048251960685 -0.011708586913 -0.060147030308 
Hf 1.27703756527 6.135615994141 7.989530615223 0.04831445356 -0.011699159235 -0.05787562154 
Hf 6.310331546786 6.135615994141 2.781802621379 0.04718736317 -0.011404204477 -0.059163775305 
Hf 6.310331546786 6.135615994141 7.989530615223 0.047225537261 -0.01139559366 -0.0588351774 
Hf 3.793684556028 6.135615994141 5.029789369387 0.048418694581 -0.011808673932 0.058533190525 
Hf 3.793684556028 6.135615994141 10.23751736323 0.047198264861 -0.011333271782 0.059829228518 
Hf 8.826978537543 6.135615994141 5.029789369387 0.047199063773 -0.011807370059 0.058399475979 
Hf 8.826978537543 6.135615994141 10.23751736323 0.048012244963 -0.011247465118 0.059753352615 
Hf 1.239609425487 3.832720210355 0.177938624457 -0.048012244954 0.011247465145 -0.059753352628 
Hf 1.239609425487 3.832720210355 5.385666618301 -0.047199063772 0.011807370071 -0.058399475957 
Hf 6.272903407003 3.832720210355 0.177938624457 -0.047198264874 0.011333271768 -0.05982922854 
Hf 6.272903407003 3.832720210355 5.385666618301 -0.048418694579 0.011808673934 -0.058533190501 
O 0.015046576838 0.22560929321 1.241328903817 0.010213912886 0.048790737398 -0.014759325803 
O 0.015046576838 0.22560929321 6.449056897661 0.000839431906 0.061619398564 0.000663669755 
O 5.048340558353 0.22560929321 1.241328903817 -0.018308213562 0.056157207945 -0.01154199446 
O 5.048340558353 0.22560929321 6.449056897661 -0.009916055742 0.064159609874 -0.00174862224 
O 5.018247404677 9.742726911287 3.966399090027 0.00991605574 -0.064159609875 0.001748622243 
O 5.018247404677 9.742726911287 9.174127083871 0.018308213561 -0.056157207945 0.011541994458 
O 10.051541386193 9.742726911287 3.966399090027 -0.000839431902 -0.061619398563 -0.000663669752 
O 10.051541386193 9.742726911287 9.174127083871 -0.010213912887 -0.048790737401 0.014759325802 
O 2.50160041392 9.742726911287 3.845192900739 0.010612568879 -0.045232725549 0.008129292162 
O 2.50160041392 9.742726911287 9.052920894583 0.007301875044 -0.058043017271 -0.018357357205 
O 7.534894395435 9.742726911287 3.845192900739 0.000131303954 -0.061592987533 -0.00142773065 
O 7.534894395435 9.742726911287 9.052920894583 0.002529440789 -0.065081297954 -0.010610984879 
O 2.531693567596 0.22560929321 1.362535093105 -0.002529440788 0.065081297951 0.010610984881 
O 2.531693567596 0.22560929321 6.570263086949 -0.000131303954 0.061592987532 0.001427730651 
O 7.564987549111 0.22560929321 1.362535093105 -0.007301875044 0.058043017269 0.018357357203 
O 7.564987549111 0.22560929321 6.570263086949 -0.01061256888 0.045232725546 -0.008129292162 
O 2.531693567596 4.758558809038 3.966399090027 -0.00275087693 -0.065651426818 0.003102440966 
O 2.531693567596 4.758558809038 9.174127083871 9.6716417e-05 -0.060983824058 0.009720211911 
O 7.564987549111 4.758558809038 3.966399090027 -0.007051116229 -0.059840684794 -0.002348349982 
O 7.564987549111 4.758558809038 9.174127083871 -0.010947423038 -0.042998618782 0.016915875638 
O 2.50160041392 5.209777395458 1.241328903817 0.010947423038 0.042998618785 -0.016915875641 
O 2.50160041392 5.209777395458 6.449056897661 0.007051116229 0.059840684797 0.002348349984 
O 7.534894395435 5.209777395458 1.241328903817 -9.6716419e-05 0.060983824061 -0.00972021191 
O 7.534894395435 5.209777395458 6.449056897661 0.002750876933 0.065651426819 -0.003102440966 
O 5.018247404677 5.209777395458 1.362535093105 0.010922420283 0.06319921797 0.012789351747 
O 5.018247404677 5.209777395458 6.570263086949 0.017045346487 0.057368508027 -0.001252678894 
O 10.051541386193 5.209777395458 1.362535093105 -0.001926483683 0.060353195643 0.015697930577 
O 10.051541386193 5.209777395458 6.570263086949 -0.008786780065 0.050482569487 -0.004890809179 
O 0.015046576838 4.758558809038 3.845192900739 0.008786780063 -0.050482569484 0.004890809181 
O 0.015046576838 4.758558809038 9.052920894583 0.001926483684 -0.060353195639 -0.01569793058 
O 5.048340558353 4.758558809038 3.845192900739 -0.017045346486 -0.057368508025 0.001252678892 
O 5.048340558353 4.758558809038 9.052920894583 -0.010922420284 -0.06319921797 -0.012789351748 
O 0.649279750745 7.066883430476 4.560998324063 0.011268387121 -0.004702122947 0.02326792554 
O 0.649279750745 7.066883430476 9.768726317907 0.012991899559 -0.005095116532 0.083229288779 
O 5.68257373226 7.066883430476 4.560998324063 0.001272427962 -0.010799417884 0.042462641322 
O 5.68257373226 7.066883430476 9.768726317907 -0.000378783944 -0.010816766998 0.064279434745 
O 4.384014230771 2.901452774021 0.646729669781 0.000378783944 0.010816766996 -0.064279434747 
O 4.384014230771 2.901452774021 5.854457663624 -0.00127242796 0.010799417882 -0.04246264132 
O 9.417308212286 2.901452774021 0.646729669781 -0.012991899561 0.005095116534 -0.083229288778 
O 9.417308212286 2.901452774021 5.854457663624 -0.01126838712 0.004702122949 -0.023267925537 
O 1.867367240013 2.901452774021 1.957134327141 0.000429841854 0.011066333476 0.055925404446 
O 1.867367240013 2.901452774021 7.164862320985 0.017296427995 0.003141104888 0.050118490796 
O 6.900661221528 2.901452774021 1.957134327141 -0.011534456454 0.012182778812 0.054512923794 
O 6.900661221528 2.901452774021 7.164862320985 -0.030880646185 0.005978499482 0.051602940528 
O 3.165926741502 7.066883430476 3.250593666703 0.030880646186 -0.005978499479 -0.051602940527 
O 3.165926741502 7.066883430476 8.458321660546 0.011534456454 -0.012182778814 -0.054512923795 
O 8.199220723018 7.066883430476 3.250593666703 -0.017296427993 -0.003141104889 -0.050118490795 
O 8.199220723018 7.066883430476 8.458321660546 -0.000429841852 -0.011066333477 -0.055925404447 
O 3.165926741502 7.885620876269 0.646729669781 0.021159964389 0.009414461527 -0.069899092936 
O 3.165926741502 7.885620876269 5.854457663624 0.019603381767 0.009188682825 -0.036911072181 
O 8.199220723018 7.885620876269 0.646729669781 -0.011125501711 0.006429873189 -0.077709041276 
O 8.199220723018 7.885620876269 5.854457663624 -0.009408284384 0.006483387744 -0.029480288074 
O 1.867367240013 2.082715328228 4.560998324063 0.009408284383 -0.006483387746 0.029480288076 
O 1.867367240013 2.082715328228 9.768726317907 0.011125501713 -0.00642987319 0.077709041272 
O 6.900661221528 2.082715328228 4.560998324063 -0.019603381767 -0.009188682825 0.03691107218 
O 6.900661221528 2.082715328228 9.768726317907 -0.021159964393 -0.009414461528 0.069899092935 
O 4.384014230771 2.082715328228 3.250593666703 0.003445121477 -0.008619481912 -0.051561101959 
O 4.384014230771 2.082715328228 8.458321660546 -0.003593546641 -0.012676939157 -0.05462981508 
O 9.417308212286 2.082715328228 3.250593666703 -0.007329295927 -0.011620251664 -0.052522067184 
O 9.417308212286 2.082715328228 8.458321660546 -0.008177564536 -0.010405509313 -0.055833344668 
O 0.649279750745 7.885620876269 1.957134327141 0.008177564539 0.010405509313 0.055833344667 
O 0.649279750745 7.885620876269 7.164862320985 0.007329295929 0.011620251662 0.052522067186 
O 5.68257373226 7.885620876269 1.957134327141 0.003593546639 0.012676939157 0.05462981508 
O 5.68257373226 7.885620876269 7.164862320985 -0.003445121473 0.008619481912 0.051561101958 
1
Lattice="20.0 0.0 0.0 0.0 20.0 0.0 0.0 0.0 20.0" Properties=species:S:1:pos:R:3:forces:R:3:energies:R:1 energy=15.3 free_energy=15.3 pbc="T T T"
Hf        0.00000000       0.00000000       0.00000000       0.00000000       0.00000000       0.00000000       3.21000000
1
Lattice="20.0 0.0 0.0 0.0 20.0 0.0 0.0 0.0 20.0" Properties=species:S:1:pos:R:3:forces:R:3:energies:R:1 energy=4.6 free_energy=4.6 pbc="T T T"
O        0.00000000       0.00000000       0.00000000       0.00000000       0.00000000       0.00000000       4.60000000
