 96
 energy=380.16626499413206 cutoff=4.00000000 nneightol=1.20000000 pbc="T T T" Lattice="10.23499814       0.00000000       0.00000000       0.00000000      10.15257672       0.00000000       0.00000000       0.00000000      10.60624898" Properties=species:S:1:pos:R:3:Z:I:1:map_shift:I:3:n_neighb:I:1:force:R:3
 Hf              1.28218534      1.15547317      2.84530786      72       0       0       0      34     -0.37185480      0.28127213     -0.14812499
 Hf              1.25653065      1.17214540      8.18011484      72       0       0      -1      35     -0.07866831      0.19006894     -0.76478416
 Hf              6.32180903      1.20048456      2.83386727      72      -1       0       0      34      0.61809785      0.23426210      0.05714654
 Hf              6.43587794      1.10990495      8.13220343      72      -1       0      -1      36     -0.64761885      0.96349142     -0.17816994
 Hf              3.88031936      8.99821299      2.44639780      72       0      -1       0      35     -0.23988125     -0.39790029      0.37636319
 Hf              3.86294402      8.97509582      7.78286987      72       0      -1      -1      35      0.04385509     -0.17799395     -0.23843592
 Hf              8.95491693      8.96618483      2.47954061      72      -1      -1       0      34      0.31978495      0.09376080     -0.21439365
 Hf              9.01250442      9.00399343      7.73992607      72      -1      -1      -1      35     -0.28194817     -0.20157226      0.25109717
 Hf              1.35208839      8.97095581      0.19460416      72       0      -1       0      34     -0.71579673     -0.14729675     -0.05252626
 Hf              1.30928589      8.95385106      5.50066976      72       0      -1      -1      34     -0.22095532      0.20633185     -0.06938598
 Hf              6.42270466      9.01661427      0.16871737      72      -1      -1       0      35     -0.29950175     -0.40213605      0.24788797
 Hf              6.42439891      8.94264916      5.45238887      72      -1      -1      -1      34     -0.07884845      0.15322345      0.47316779
 Hf              3.80744556      1.15754282      5.10474006      72       0       0       0      34      0.43554744      0.33037584      0.36133361
 Hf              3.82911986      1.19915207     10.40689278      72       0       0      -1      34      0.15522853      0.32411511      0.00792405
 Hf              8.91848217      1.16306284      5.06149473      72      -1       0       0      35      0.10928422      0.33738017      0.67777485
 Hf              8.94547858      1.15619563     10.46559464      72      -1       0      -1      35      0.07147071      0.24009320     -0.48870651
 Hf              3.81758925      3.96825156      2.47490416      72       0       0       0      36      0.10243491     -0.73016207      0.31668501
 Hf              3.77838921      3.89660866      7.80801359      72       0       0      -1      35      0.07275623      0.09801821     -0.62767913
 Hf              8.92545080      3.89851754      2.46428345      72      -1       0       0      35      0.01855132      0.21709180     -0.09546628
 Hf              8.95428687      3.92440144      7.73924634      72      -1       0      -1      35     -0.04895030     -0.35926207      0.29521954
 Hf              1.31238570      6.22627993      2.83187100      72       0      -1       0      35     -0.29138589      0.45114607     -0.24389912
 Hf              1.31679168      6.26621873      8.13791723      72       0      -1      -1      34     -0.33322471     -0.30024590      0.29440618
 Hf              6.41304237      6.26238917      2.81369965      72      -1      -1       0      35      0.22387392     -0.25592028      0.30625680
 Hf              6.43139937      6.26843745      8.15365375      72      -1      -1      -1      34     -0.41807905     -0.42337937     -0.12786295
 Hf              3.87319951      6.28524207      5.11858098      72       0      -1       0      35     -0.30099814     -0.63968504      0.04030888
 Hf              3.86742738      6.23665101     10.45271335      72       0      -1      -1      35     -0.13134096      0.21621867     -0.47674300
 Hf              8.97406134      6.24960829      5.12097134      72      -1      -1       0      35     -0.10007421     -0.25327378     -0.21677203
 Hf              8.92937836      6.30427542     10.39137591      72      -1      -1      -1      35      0.67115668     -0.48392460      0.29562150
 Hf              1.25848410      3.86086862      0.20311960      72       0       0       0      34     -0.12364513      0.58252609      0.20233106
 Hf              1.23906797      3.88875086      5.44856648      72       0       0      -1      34      0.28189773      0.10359667      0.72867004
 Hf              6.34310567      3.87857761      0.19999452      72      -1       0       0      34      0.52457814      0.19348954     -0.30229311
 Hf              6.31714698      3.88995148      5.54326793      72      -1       0      -1      35      0.49811167      0.04484125     -0.78526788
 O               0.00987749      0.18795990      1.25501220       8       0       0       0      34      0.05553601     -0.07866088      0.17913364
 O               0.02899060      0.24039400      6.56882297       8       0       0      -1      33     -0.24718064     -0.21930275     -0.15896854
 O               5.09862289      0.26744278      1.25201791       8       0       0       0      34      0.28280304     -0.45409318     -0.06427161
 O               5.15534215      0.18762380      6.53905927       8      -1       0      -1      35     -0.24039902      0.01050644      0.04975992
 O               5.11877621      9.90287037      3.99986561       8      -1      -1       0      33     -0.25473325      0.27355991      0.19082041
 O               5.11406289      9.95836442      9.32916526       8       0      -1      -1      33      0.18839266     -0.22120934     -0.02352829
 O              10.19507535      9.88012847      4.05228678       8      -1      -1       0      33      0.33210219      0.19161268     -0.12316402
 O               0.01714909      9.93489082      9.33572975       8       0      -1      -1      33     -0.12501737      0.26687723      0.15412953
 O               2.55422801      9.92510198      3.92083002       8       0      -1       0      33     -0.04529919     -0.04754842     -0.06921357
 O               2.56808734      9.91275967      9.22512278       8       0      -1      -1      33      0.02439653      0.23900322      0.12775833
 O               7.65279706      9.92133583      3.93119799       8      -1      -1       0      34     -0.05052915      0.01398202     -0.36517396
 O               7.69616105      9.94963083      9.21659364       8      -1      -1      -1      33     -0.01560495     -0.22110580      0.01519234
 O               2.55397169      0.27614965      1.39599503       8       0       0       0      33      0.49131809     -0.69235094     -0.20080633
 O               2.57840929      0.20119815      6.68638460       8       0       0      -1      33      0.01444784      0.18446369      0.24642836
 O               7.68169782      0.23941796      1.37324302       8      -1       0       0      33     -0.14488123     -0.01799983      0.35565203
 O               7.67100952      0.18215698      6.66996173       8      -1       0      -1      34      0.45662574     -0.03956026      0.09973644
 O               2.55171382      4.84405256      4.03138936       8       0       0       0      33      0.21362897      0.16287911      0.00360286
 O               2.56793901      4.85527242      9.40435605       8       0       0      -1      34     -0.17678675     -0.02317283     -0.39656659
 O               7.68347690      4.85338820      4.04126059       8      -1       0       0      33      0.04721981      0.05412142     -0.00990778
 O               7.67918675      4.87234398      9.37491558       8      -1       0      -1      34     -0.19210472     -0.10607409     -0.35933731
 O               2.55789779      5.28702470      1.29709808       8       0      -1       0      34     -0.18532722     -0.00737429     -0.14074396
 O               2.55317892      5.30936049      6.54818233       8       0      -1      -1      34     -0.22352253     -0.12001512      0.17604839
 O               7.66073103      5.30483063      1.28582552       8      -1      -1       0      33     -0.04242080      0.00113420     -0.22359370
 O               7.66510092      5.31856848      6.53676654       8      -1      -1      -1      34     -0.19013322     -0.40345509      0.62710418
 O               5.08733812      5.36252246      1.37539157       8       0      -1       0      33      0.14975690     -0.41424865      0.23255806
 O               5.08119666      5.28592270      6.68709166       8       0      -1      -1      33      0.29116588     -0.00499178      0.31399195
 O              10.22828286      5.28680524      1.33482538       8      -1      -1       0      33     -0.05190472     -0.03735895      0.53256079
 O               0.00310762      5.30668475      6.72428729       8       0      -1      -1      33     -0.25532306     -0.10187321     -0.80638703
 O               0.01157674      4.83908545      3.88338307       8       0       0       0      33     -0.04478522      0.04876999      0.12958604
 O              10.22147690      4.89898672      9.19662025       8      -1       0      -1      34      0.23831948     -0.15391251      0.18826891
 O               5.12357656      4.85314657      3.92870652       8      -1       0       0      34     -0.08587584      0.16543085     -0.40046529
 O               5.09881389      4.85901077      9.21422567       8       0       0      -1      33      0.25219122      0.15938346      0.15576165
 O               0.67068494      7.17945900      4.64062470       8       0      -1       0      29      0.03862761      0.11437653      0.04608992
 O               0.63226285      7.26171373      9.91853165       8       0      -1      -1      30     -0.15460978     -0.11553027      0.07268408
 O               5.77985147      7.17999429      4.62758360       8      -1      -1       0      29      0.02715041      0.31293547      0.14900791
 O               5.77446991      7.21909960      9.94293290       8      -1      -1      -1      30     -0.09758692      0.22676601      0.03797631
 O               4.46586978      2.95843999      0.69827368       8       0       0       0      29      0.08324722      0.08562091     -0.22949137
 O               4.43483393      2.93734707      5.98113843       8       0       0      -1      29     -0.14585170     -0.25386147     -0.01187961
 O               9.64144413      2.89723557      0.70093447       8      -1       0       0      29     -0.16041723      0.02647767      0.00767612
 O               9.59886799      2.92060784      5.96267840       8      -1       0      -1      30     -0.18082157      0.19718230     -0.04510097
 O               1.96676644      2.91484063      1.99141753       8       0       0       0      29     -0.32923068      0.15131331     -0.11381699
 O               1.85181699      2.95823977      7.30211113       8       0       0      -1      29      0.27290174     -0.09003968      0.06722596
 O               7.02821475      2.96976298      1.96984420       8      -1       0       0      29     -0.05034997     -0.33654427      0.19550833
 O               7.02387860      2.88585590      7.21794116       8      -1       0      -1      29      0.30907144      0.11238218      0.68177000
 O               3.25761071      7.18242256      3.30056045       8       0      -1       0      29     -0.19148197      0.29784108      0.14039230
 O               3.16032510      7.21727286      8.64751552       8       0      -1      -1      29      0.39300477      0.21024435      0.03348467
 O               8.33383439      7.20798902      3.32477560       8      -1      -1       0      30     -0.08292932      0.07678434      0.03348915
 O               8.29588136      7.23792747      8.61017379       8      -1      -1      -1      30      0.13573457      0.15131317      0.07688581
 O               3.23797926      8.00261195      0.71847941       8       0      -1       0      30     -0.25550773      0.22253622     -0.41557399
 O               3.22254429      8.02880593      5.97814828       8       0      -1      -1      29     -0.10953657     -0.08443487     -0.04735169
 O               8.26072848      8.05073989      0.66840433       8      -1      -1       0      29      0.34352388     -0.25839412      0.05102623
 O               8.32100309      7.98981731      5.98587892       8      -1      -1      -1      30      0.01379146      0.12661523     -0.13245000
 O               1.88653783      2.11886159      4.64267914       8       0       0       0      29      0.30643804     -0.11088614     -0.09882098
 O               1.94613706      2.12338019      9.95749866       8       0       0      -1      29     -0.16887001     -0.01338608     -0.31616827
 O               6.96783387      2.12418945      4.61224529       8      -1       0       0      29      0.42025244     -0.03757251     -0.05710386
 O               7.01182362      2.12791024      9.98407410       8      -1       0      -1      29      0.07236548     -0.13360423     -0.52145980
 O               4.48971880      2.15212076      3.30521570       8       0       0       0      29     -0.41534335     -0.06089050      0.36102506
 O               4.47986173      2.14347139      8.60751755       8       0       0      -1      29     -0.03844700     -0.10589537      0.25160973
 O               9.59628814      2.10409501      3.31182601       8      -1       0       0      29     -0.15102482      0.20150513     -0.00786784
 O               9.57217048      2.15232865      8.62708818       8      -1       0      -1      29      0.11562019     -0.11149369      0.25352026
 O               0.66100036      8.01056821      1.98527781       8       0      -1       0      29     -0.01757791     -0.15057334      0.04391614
 O               0.63643735      8.03420038      7.29851377       8       0      -1      -1      29      0.15596730     -0.14807634     -0.29869665
 O               5.77858410      8.05006060      1.98743635       8      -1      -1       0      29     -0.00236949      0.10778179     -0.18095394
 O               5.74793632      7.97615968      7.30345528       8      -1      -1      -1      30     -0.06567335      0.49353998     -0.36420114
 96
 energy=379.81149683264010 cutoff=4.00000000 nneightol=1.20000000 pbc="T T T" Lattice="10.22947880       0.00000000       0.00000000       0.00000000      10.14544319       0.00000000       0.00000000       0.00000000      10.59801837" Properties=species:S:1:pos:R:3:Z:I:1:map_shift:I:3:n_neighb:I:1:force:R:3
 Hf              1.28162782      1.15426366      2.84318499      72       0       0       0      34     -0.38295614      0.26976953     -0.16367640
 Hf              1.25527912      1.17172778      8.17427551      72       0       0      -1      35     -0.04556507      0.18215599     -0.79627021
 Hf              6.31775235      1.20052781      2.83201825      72      -1       0       0      34      0.64135970      0.20883117      0.03569445
 Hf              6.43318368      1.10833242      8.12550274      72      -1       0      -1      36     -0.68306121      0.99669486     -0.19461830
 Hf              3.87873764      8.99168223      2.44477296      72       0      -1       0      35     -0.25909089     -0.40397959      0.33221304
 Hf              3.86124714      8.96901471      7.77674970      72       0      -1      -1      35      0.04196107     -0.19468941     -0.22181560
 Hf              8.95046120      8.95974294      2.47781933      72      -1      -1       0      34      0.30754873      0.10244938     -0.21003413
 Hf              9.00854079      8.99789908      7.73397333      72      -1      -1      -1      36     -0.30526413     -0.17503852      0.21637338
 Hf              1.35152647      8.96395313      0.19485307      72       0      -1       0      34     -0.67498025     -0.12343538     -0.05498410
 Hf              1.30884936      8.94705215      5.49654462      72       0      -1      -1      34     -0.24045075      0.24202537     -0.10054523
 Hf              6.41991379      9.01080026      0.16837270      72      -1      -1       0      35     -0.38663878     -0.41347421      0.25372190
 Hf              6.42084075      8.93607879      5.44788769      72      -1      -1      -1      35     -0.06337206      0.13811681      0.46193342
 Hf              3.80531310      1.15664915      5.10094259      72       0       0       0      34      0.44393663      0.32440746      0.37451883
 Hf              3.82735593      1.19898011     10.39830821      72       0       0      -1      34      0.16709913      0.30895235      0.01035343
 Hf              8.91322654      1.16247509      5.05667776      72      -1       0       0      35      0.12198809      0.31668133      0.71197077
 Hf              8.94121251      1.15507038     10.45789786      72      -1       0      -1      35      0.04034442      0.26210939     -0.49018972
 Hf              3.81561145      3.96598451      2.47366654      72       0       0       0      36      0.10578309     -0.70397894      0.28425664
 Hf              3.77511363      3.89357873      7.80223995      72       0       0      -1      35      0.10878037      0.12254018     -0.60351152
 Hf              8.92007539      3.89559903      2.46271848      72      -1       0       0      35      0.03462188      0.24230494     -0.11642267
 Hf              8.94985053      3.92138020      7.73306002      72      -1       0      -1      35     -0.07742123     -0.35346773      0.29092838
 Hf              1.31187116      6.22163531      2.82969377      72       0      -1       0      35     -0.30190506      0.47179786     -0.27662898
 Hf              1.31596753      6.26163551      8.13207345      72       0      -1      -1      34     -0.30803862     -0.29605161      0.29424959
 Hf              6.41017277      6.25794979      2.81179870      72      -1      -1       0      35      0.20325511     -0.24429879      0.26857293
 Hf              6.42800329      6.26412727      8.14789280      72      -1      -1      -1      34     -0.47476860     -0.42761735     -0.15314757
 Hf              3.87150792      6.28124715      5.11470405      72       0      -1       0      35     -0.31648668     -0.66171409      0.02874376
 Hf              3.86531950      6.23226227     10.44450050      72       0      -1      -1      35     -0.11719287      0.20024170     -0.45841466
 Hf              8.96939530      6.24469491      5.11708490      72      -1      -1       0      35     -0.12561449     -0.26585582     -0.23406733
 Hf              8.92434962      6.30053751     10.38253675      72      -1      -1      -1      35      0.67774945     -0.52199209      0.34946895
 Hf              1.25700030      3.85759844      0.20328854      72       0       0       0      34     -0.07430869      0.62051049      0.20381095
 Hf              1.23840103      3.88576697      5.44445066      72       0       0      -1      34      0.27279863      0.09211407      0.71998819
 Hf              6.33958653      3.87517505      0.19941935      72      -1       0       0      35      0.51222398      0.23218862     -0.30462336
 Hf              6.31318089      3.88651629      5.53975402      72      -1       0      -1      35      0.49895054      0.07822926     -0.80811090
 O               0.00710577      0.18930057      1.25261634       8       0       0       0      35      0.07647937     -0.09256365      0.19698503
 O               0.02942548      0.24342500      6.56126872       8       0       0      -1      33     -0.24132286     -0.23851546     -0.12017731
 O               5.09298395      0.26769097      1.25161179       8       0       0       0      34      0.32176569     -0.43658618     -0.06740556
 O               5.15418843      0.18272801      6.53620244       8      -1       0      -1      35     -0.27862056      0.09306554      0.01207311
 O               5.11521489      9.89213183      3.99635294       8      -1      -1       0      33     -0.24017680      0.31481312      0.21830980
 O               5.11076830      9.95296534      9.32146252       8       0      -1      -1      34      0.21549353     -0.24613882     -0.02056525
 O              10.18768165      9.87177263      4.04927915       8      -1      -1       0      33      0.36160552      0.18388274     -0.14578044
 O               0.01757981      9.92803199      9.32828741       8       0      -1      -1      33     -0.12395787      0.25239168      0.14540077
 O               2.55175599      9.91847662      3.91633172       8       0      -1       0      33     -0.02513393     -0.06111030     -0.05502212
 O               2.56939516      9.90504884      9.21606829       8       0      -1      -1      33     -0.02947359      0.24723546      0.14163248
 O               7.65133483      9.91561372      3.92741185       8      -1      -1       0      34     -0.11305356      0.01212508     -0.35870321
 O               7.69238593      9.94850842      9.20941209       8      -1      -1      -1      33      0.01357952     -0.28766195      0.00366236
 O               2.55188338      0.27687285      1.39257703       8       0       0       0      33      0.47663545     -0.69534196     -0.19169838
 O               2.57795140      0.20091463      6.67954251       8       0       0      -1      33      0.01602399      0.20295856      0.25179180
 O               7.67459821      0.23735622      1.37317269       8      -1       0       0      33     -0.11895857     -0.00203527      0.34332845
 O               7.66717469      0.18265911      6.66209038       8      -1       0      -1      34      0.46555719     -0.04676980      0.12271929
 O               2.54732354      4.84280964      4.02681002       8       0       0       0      33      0.22338481      0.13703379      0.04164057
 O               2.56988168      4.85111893      9.40007629       8       0       0      -1      34     -0.24368238     -0.04073405     -0.42616255
 O               7.67575987      4.85237767      4.03369536       8      -1       0       0      33      0.07387360      0.03699921      0.03876357
 O               7.67634746      4.86928026      9.36778098       8      -1       0      -1      34     -0.20324543     -0.11276000     -0.36038818
 O               2.55741041      5.28428294      1.29832114       8       0      -1       0      34     -0.18749754     -0.01660283     -0.14768902
 O               2.55089815      5.30357376      6.54395708       8       0      -1      -1      34     -0.23209585     -0.09091701      0.16171932
 O               7.65452177      5.30128725      1.28717949       8      -1      -1       0      33      0.02538575      0.00264457     -0.28221229
 O               7.65834181      5.31161815      6.53135646       8      -1      -1      -1      34     -0.15068707     -0.35809577      0.61614700
 O               5.08665207      5.36315562      1.37366351       8       0      -1       0      33      0.11736590     -0.47617153      0.25607607
 O               5.07771008      5.28156581      6.67973094       8       0      -1      -1      33      0.28741560      0.04543277      0.34635362
 O              10.22667263      5.28573040      1.33038756       8      -1      -1       0      33     -0.11933017     -0.05170571      0.54863952
 O               0.00140355      5.30354362      6.71670534       8       0      -1      -1      33     -0.23477892     -0.09210097     -0.79084182
 O               0.00784426      4.83843957      3.87838115       8       0       0       0      33     -0.01281617      0.02024607      0.15979462
 O              10.21758280      4.89653283      9.18870474       8      -1       0      -1      34      0.23979392     -0.15830647      0.17655224
 O               5.11872312      4.84938012      3.92562331       8      -1       0       0      34     -0.09015131      0.15294624     -0.40540418
 O               5.09577405      4.85525566      9.20695438       8       0       0      -1      33      0.28999496      0.14609055      0.14736531
 O               0.66878742      7.17671245      4.63574683       8       0      -1       0      29      0.04123323      0.08464377      0.05199878
 O               0.63355108      7.25794171      9.91273416       8       0      -1      -1      30     -0.18341462     -0.14440407      0.02795188
 O               5.77467830      7.17436445      4.62039244       8      -1      -1       0      29      0.03448268      0.34008556      0.19921176
 O               5.76765942      7.21094416      9.93477141       8      -1      -1      -1      30     -0.04384575      0.28276624      0.02882124
 O               4.46233417      2.95706861      0.69770955       8       0       0       0      29      0.10042286      0.11203561     -0.21383557
 O               4.43290089      2.93759988      5.97839115       8       0       0      -1      29     -0.16648762     -0.32554963     -0.05784048
 O               9.63742620      2.89637195      0.69791990       8      -1       0       0      29     -0.17819183      0.03365944      0.04126436
 O               9.59300090      2.91864558      5.95854894       8      -1       0      -1      30     -0.15833502      0.22126129     -0.04446277
 O               1.96406481      2.91495366      1.99123292       8       0       0       0      29     -0.33080583      0.13483139     -0.11351567
 O               1.85476479      2.95658561      7.29655250       8       0       0      -1      29      0.22714713     -0.10867553      0.05817144
 O               7.02788913      2.96886258      1.96966799       8      -1       0       0      29     -0.08103692     -0.37416091      0.19708625
 O               7.02007851      2.88598353      7.21232839       8      -1       0      -1      30      0.31682597      0.07121188      0.72389931
 O               3.25312194      7.17902436      3.29748349       8       0      -1       0      29     -0.17912199      0.28649861      0.15773300
 O               3.15931357      7.20858302      8.64315750       8       0      -1      -1      29      0.37787596      0.25449288     -0.02884371
 O               8.32954018      7.20314171      3.32040352       8      -1      -1       0      30     -0.08183967      0.08206712      0.03009202
 O               8.29047011      7.23306158      8.60282262       8      -1      -1      -1      30      0.14669882      0.16749694      0.06143537
 O               3.23850503      7.99588776      0.71546975       8       0      -1       0      30     -0.29731690      0.27830635     -0.38550466
 O               3.21964826      8.02158694      5.97441920       8       0      -1      -1      29     -0.11109024     -0.07913117     -0.04940042
 O               8.24870382      8.04287147      0.66480976       8      -1      -1       0      29      0.40524669     -0.23926540      0.07664497
 O               8.31550367      7.98303159      5.97814184       8      -1      -1      -1      30      0.01166531      0.14879120     -0.09038357
 O               1.88679938      2.11460846      4.63769094       8       0       0       0      29      0.31007398     -0.05535000     -0.05404255
 O               1.94823787      2.12287731      9.94833174       8       0       0      -1      29     -0.19877300     -0.02285882     -0.31783691
 O               6.96539474      2.12503931      4.60937565       8      -1       0       0      29      0.40317820     -0.07545540     -0.07906341
 O               7.00633436      2.12597987      9.97875502       8      -1       0      -1      29      0.09153009     -0.13516404     -0.52769027
 O               4.48821422      2.14856553      3.29987223       8       0       0       0      29     -0.43834451     -0.04991819      0.40179178
 O               4.48166529      2.14410122      8.60238908       8       0       0      -1      29     -0.04863281     -0.11938034      0.22938187
 O               9.59413693      2.10234213      3.31282835       8      -1       0       0      29     -0.17096306      0.24609077     -0.07137417
 O               9.56904880      2.15221626      8.62113718       8      -1       0      -1      29      0.11258333     -0.12633514      0.25630707
 O               0.65940997      8.00631868      1.98242554       8       0      -1       0      29     -0.01393715     -0.14643281      0.04767762
 O               0.63357647      8.02987170      7.29088541       8       0      -1      -1      29      0.17480847     -0.18250480     -0.25832989
 O               5.77189032      8.04704006      1.98415359       8      -1      -1       0      29      0.04082280      0.07852092     -0.16503720
 O               5.74344751      7.97565278      7.29771540       8      -1      -1      -1      30     -0.01311614      0.39155140     -0.33895000
 96
 energy=379.35825289534711 cutoff=4.00000000 nneightol=1.20000000 pbc="T T T" Lattice="10.22223411       0.00000000       0.00000000       0.00000000      10.13605401       0.00000000       0.00000000       0.00000000      10.58735487" Properties=species:S:1:pos:R:3:Z:I:1:map_shift:I:3:n_neighb:I:1:force:R:3
 Hf              1.28083723      1.15280540      2.84040067      72       0       0       0      34     -0.39504229      0.25463769     -0.18143358
 Hf              1.25380531      1.17106879      8.16652751      72       0       0      -1      35     -0.01258709      0.17203145     -0.82954151
 Hf              6.31265395      1.20032884      2.82952707      72      -1       0       0      35      0.66604919      0.17816868      0.01186329
 Hf              6.42937774      1.10655857      8.11692117      72      -1       0      -1      36     -0.72007552      1.02775269     -0.21380966