 96
 energy=490.32783413627675 cutoff=4.00000000 nneightol=1.20000000 pbc="T T T" Lattice="10.23499814       0.00000000       0.00000000       0.00000000      10.15257672       0.00000000       0.00000000       0.00000000      10.60624898" Properties=species:S:1:pos:R:3:Z:I:1:map_shift:I:3:n_neighb:I:1:force:R:3
 Hf              1.28218534      1.15547317      2.84530786      72       0       0       0      34     -0.16554009      0.30732769     -0.05808154
 Hf              1.25653065      1.17214540      8.18011484      72       0       0      -1      35      0.02599345      0.17736714     -0.44308160
 Hf              6.32180903      1.20048456      2.83386727      72      -1       0       0      34      0.34840489      0.05338175     -0.07000876
 Hf              6.43587794      1.10990495      8.13220343      72      -1       0      -1      36     -0.29945542      0.86976887     -0.28198574
 Hf              3.88031936      8.99821299      2.44639780      72       0      -1       0      35     -0.14443247     -0.33192650      0.15863877
 Hf              3.86294402      8.97509582      7.78286987      72       0      -1      -1      35      0.04741538     -0.07571543     -0.11973171
 Hf              8.95491693      8.96618483      2.47954061      72      -1      -1       0      34      0.13750308      0.01055328     -0.22467624
 Hf              9.01250442      9.00399343      7.73992607      72      -1      -1      -1      35     -0.16400701     -0.33391648      0.27778214
 Hf              1.35208839      8.97095581      0.19460416      72       0      -1       0      34     -0.33165806     -0.11097964      0.00390801
 Hf              1.30928589      8.95385106      5.50066976      72       0      -1      -1      34     -0.09729216      0.08786092     -0.04657332
 Hf              6.42270466      9.01661427      0.16871737      72      -1      -1       0      35     -0.10251261     -0.34381618      0.10248365
 Hf              6.42439891      8.94264916      5.45238887      72      -1      -1      -1      34     -0.12180694      0.13166750      0.28019039
 Hf              3.80744556      1.15754282      5.10474006      72       0       0       0      34      0.22268588      0.29483555      0.13320888
 Hf              3.82911986      1.19915207     10.40689278      72       0       0      -1      34     -0.02606701      0.16638016      0.09131958
 Hf              8.91848217      1.16306284      5.06149473      72      -1       0       0      35      0.01405821      0.30109067      0.40297266
 Hf              8.94547858      1.15619563     10.46559464      72      -1       0      -1      35      0.04359457      0.26508708     -0.20876088
 Hf              3.81758925      3.96825156      2.47490416      72       0       0       0      36      0.01547299     -0.76186023      0.23683331
 Hf              3.77838921      3.89660866      7.80801359      72       0       0      -1      35      0.14432938      0.01978557     -0.37858062
 Hf              8.92545080      3.89851754      2.46428345      72      -1       0       0      35      0.04220382      0.01313255     -0.16210812
 Hf              8.95428687      3.92440144      7.73924634      72      -1       0      -1      35     -0.12835884     -0.42909026      0.24774217
 Hf              1.31238570      6.22627993      2.83187100      72       0      -1       0      35     -0.06967772      0.35831316     -0.11383031
 Hf              1.31679168      6.26621873      8.13791723      72       0      -1      -1      34     -0.20802009     -0.14021022      0.13012135
 Hf              6.41304237      6.26238917      2.81369965      72      -1      -1       0      35      0.07872887     -0.10813807      0.28076073
 Hf              6.43139937      6.26843745      8.15365375      72      -1      -1      -1      34     -0.26770907     -0.13809443     -0.08522917
 Hf              3.87319951      6.28524207      5.11858098      72       0      -1       0      35     -0.15911007     -0.40212333      0.07310212
 Hf              3.86742738      6.23665101     10.45271335      72       0      -1      -1      35     -0.13132435      0.29563354     -0.15272949
 Hf              8.97406134      6.24960829      5.12097134      72      -1      -1       0      35     -0.05011555     -0.12475471     -0.11198386
 Hf              8.92937836      6.30427542     10.39137591      72      -1      -1      -1      35      0.29848411     -0.38582798      0.16932228
 Hf              1.25848410      3.86086862      0.20311960      72       0       0       0      34     -0.08250638      0.41987595     -0.02790156
 Hf              1.23906797      3.88875086      5.44856648      72       0       0      -1      34      0.25045743     -0.01679904      0.32532119
 Hf              6.34310567      3.87857761      0.19999452      72      -1       0       0      34      0.34301465      0.20944277     -0.14149861
 Hf              6.31714698      3.88995148      5.54326793      72      -1       0      -1      35      0.27423569     -0.04853542     -0.55866826
 O               0.00987749      0.18795990      1.25501220       8       0       0       0      34      0.01209452     -0.01011218      0.25930124
 O               0.02899060      0.24039400      6.56882297       8       0       0      -1      33     -0.13892139     -0.13894273     -0.07416147
 O               5.09862289      0.26744278      1.25201791       8       0       0       0      34      0.34264666     -0.36864224     -0.03708263
 O               5.15534215      0.18762380      6.53905927       8      -1       0      -1      35     -0.26940563      0.07136233      0.09900437
 O               5.11877621      9.90287037      3.99986561       8      -1      -1       0      33     -0.30659083      0.29454519      0.25244059
 O               5.11406289      9.95836442      9.32916526       8       0      -1      -1      33      0.12898230     -0.19209856      0.07102364
 O              10.19507535      9.88012847      4.05228678       8      -1      -1       0      33      0.27796093      0.15244383     -0.11609347
 O               0.01714909      9.93489082      9.33572975       8       0      -1      -1      33     -0.11558407      0.22492435      0.02837752
 O               2.55422801      9.92510198      3.92083002       8       0      -1       0      33     -0.04195228     -0.04009267     -0.03052827
 O               2.56808734      9.91275967      9.22512278       8       0      -1      -1      33     -0.06846227      0.19385245      0.03161604
 O               7.65279706      9.92133583      3.93119799       8      -1      -1       0      34      0.08748463      0.15618782     -0.36912344
 O               7.69616105      9.94963083      9.21659364       8      -1      -1      -1      33     -0.09129119     -0.06646775     -0.04004084
 O               2.55397169      0.27614965      1.39599503       8       0       0       0      33      0.24478319     -0.71586183     -0.08050710
 O               2.57840929      0.20119815      6.68638460       8       0       0      -1      33      0.02484538      0.24024612      0.08652458
 O               7.68169782      0.23941796      1.37324302       8      -1       0       0      33     -0.03692672     -0.00183757      0.36839559
 O               7.67100952      0.18215698      6.66996173       8      -1       0      -1      34      0.34042791      0.04319857      0.03308000
 O               2.55171382      4.84405256      4.03138936       8       0       0       0      33      0.06953141      0.13998246      0.15161240
 O               2.56793901      4.85527242      9.40435605       8       0       0      -1      34     -0.16810356     -0.11657679     -0.53682654
 O               7.68347690      4.85338820      4.04126059       8      -1       0       0      33      0.06142242     -0.04171382     -0.02431674
 O               7.67918675      4.87234398      9.37491558       8      -1       0      -1      34     -0.19752313     -0.19003317     -0.53909463
 O               2.55789779      5.28702470      1.29709808       8       0      -1       0      34     -0.31452613     -0.01204189     -0.21222404
 O               2.55317892      5.30936049      6.54818233       8       0      -1      -1      34     -0.16834677     -0.12110386      0.23628393
 O               7.66073103      5.30483063      1.28582552       8      -1      -1       0      33     -0.09119436      0.07183369     -0.18716855
 O               7.66510092      5.31856848      6.53676654       8      -1      -1      -1      34     -0.10843586     -0.41306261      0.59799084
 O               5.08733812      5.36252246      1.37539157       8       0      -1       0      33      0.28505502     -0.39826705      0.26692210
 O               5.08119666      5.28592270      6.68709166       8       0      -1      -1      33      0.20897397      0.06742381      0.23246420
 O              10.22828286      5.28680524      1.33482538       8      -1      -1       0      33     -0.06151825      0.05502074      0.39718499
 O               0.00310762      5.30668475      6.72428729       8       0      -1      -1      33     -0.20347140     -0.09552804     -0.58062443
 O               0.01157674      4.83908545      3.88338307       8       0       0       0      33     -0.09879255      0.00816670      0.22935733
 O              10.22147690      4.89898672      9.19662025       8      -1       0      -1      34      0.21973575     -0.20255982      0.29098756
 O               5.12357656      4.85314657      3.92870652       8      -1       0       0      34      0.03065942      0.14737319     -0.23943629
 O               5.09881389      4.85901077      9.21422567       8       0       0      -1      33      0.28882433     -0.06676030      0.05279767
 O               0.67068494      7.17945900      4.64062470       8       0      -1       0      29     -0.00390832      0.13095900      0.07900538
 O               0.63226285      7.26171373      9.91853165       8       0      -1      -1      30     -0.06837124     -0.20392205      0.15244886
 O               5.77985147      7.17999429      4.62758360       8      -1      -1       0      29      0.04457701      0.24417556      0.09668699
 O               5.77446991      7.21909960      9.94293290       8      -1      -1      -1      30     -0.11501151      0.15507870     -0.02874637
 O               4.46586978      2.95843999      0.69827368       8       0       0       0      29      0.11434600      0.14395211     -0.28308088
 O               4.43483393      2.93734707      5.98113843       8       0       0      -1      29     -0.21290196     -0.27836321     -0.08580628
 O               9.64144413      2.89723557      0.70093447       8      -1       0       0      29     -0.13266957      0.10785593     -0.13751318
 O               9.59886799      2.92060784      5.96267840       8      -1       0      -1      30     -0.20282975      0.17987219     -0.12067405
 O               1.96676644      2.91484063      1.99141753       8       0       0       0      29     -0.35244027      0.20344443      0.02028697
 O               1.85181699      2.95823977      7.30211113       8       0       0      -1      29      0.29179091     -0.05114422      0.13769539
 O               7.02821475      2.96976298      1.96984420       8      -1       0       0      29      0.04499585     -0.25012832      0.17786629
 O               7.02387860      2.88585590      7.21794116       8      -1       0      -1      29      0.28915555      0.36415869      0.57293214
 O               3.25761071      7.18242256      3.30056045       8       0      -1       0      29     -0.21501181      0.27807158      0.22893561
 O               3.16032510      7.21727286      8.64751552       8       0      -1      -1      29      0.22811738     -0.02638753      0.02746809
 O               8.33383439      7.20798902      3.32477560       8      -1      -1       0      30     -0.03548121      0.09922704     -0.08486353
 O               8.29588136      7.23792747      8.61017379       8      -1      -1      -1      30      0.16750022     -0.04354160      0.13669554
 O               3.23797926      8.00261195      0.71847941       8       0      -1       0      30     -0.23655132      0.24684923     -0.35813709
 O               3.22254429      8.02880593      5.97814828       8       0      -1      -1      29     -0.07292226     -0.22429416     -0.12512530
 O               8.26072848      8.05073989      0.66840433       8      -1      -1       0      29      0.38236459     -0.26579713      0.06921988
 O               8.32100309      7.98981731      5.98587892       8      -1      -1      -1      30      0.00622929      0.09025711     -0.16765055
 O               1.88653783      2.11886159      4.64267914       8       0       0       0      29      0.19936554     -0.00960083     -0.02373368
 O               1.94613706      2.12338019      9.95749866       8       0       0      -1      29     -0.14188742      0.08934478     -0.31407834
 O               6.96783387      2.12418945      4.61224529       8      -1       0       0      29      0.35578995      0.04833905     -0.03422996
 O               7.01182362      2.12791024      9.98407410       8      -1       0      -1      29      0.05107592      0.06753256     -0.43538460
 O               4.48971880      2.15212076      3.30521570       8       0       0       0      29     -0.25029087     -0.06719164      0.36542549
 O               4.47986173      2.14347139      8.60751755       8       0       0      -1      29     -0.03190150     -0.03037032      0.18480576
 O               9.59628814      2.10409501      3.31182601       8      -1       0       0      29     -0.11101637      0.08501283      0.05513728
 O               9.57217048      2.15232865      8.62708818       8      -1       0      -1      29      0.02244023     -0.05169147      0.23353903
 O               0.66100036      8.01056821      1.98527781       8       0      -1       0      29     -0.04916089     -0.12754908     -0.06603564
 O               0.63643735      8.03420038      7.29851377       8       0      -1      -1      29      0.12535331     -0.05838067     -0.30471992
 O               5.77858410      8.05006060      1.98743635       8      -1      -1       0      29      0.07417552     -0.02409753     -0.02924947
 O               5.74793632      7.97615968      7.30345528       8      -1      -1      -1      30     -0.04429102      0.27375438     -0.28553346
 96
 energy=490.57018449113946 cutoff=4.00000000 nneightol=1.20000000 pbc="T T T" Lattice="10.22947880       0.00000000       0.00000000       0.00000000      10.14544319       0.00000000       0.00000000       0.00000000      10.59801837" Properties=species:S:1:pos:R:3:Z:I:1:map_shift:I:3:n_neighb:I:1:force:R:3
 Hf              1.28162782      1.15426366      2.84318499      72       0       0       0      34     -0.16815028      0.30317025     -0.06435556
 Hf              1.25527912      1.17172778      8.17427551      72       0       0      -1      35      0.03522544      0.17338738     -0.45431826
 Hf              6.31775235      1.20052781      2.83201825      72      -1       0       0      34      0.35194949      0.03621884     -0.07527096
 Hf              6.43318368      1.10833242      8.12550274      72      -1       0      -1      36     -0.30662713      0.89001917     -0.28447166
 Hf              3.87873764      8.99168223      2.44477296      72       0      -1       0      35     -0.15720915     -0.32989669      0.14357536
 Hf              3.86124714      8.96901471      7.77674970      72       0      -1      -1      35      0.05030833     -0.08911914     -0.10562775
 Hf              8.95046120      8.95974294      2.47781933      72      -1      -1       0      34      0.13186182      0.00619168     -0.22530420
 Hf              9.00854079      8.99789908      7.73397333      72      -1      -1      -1      36     -0.17481556     -0.31368476      0.25675790
 Hf              1.35152647      8.96395313      0.19485307      72       0      -1       0      34     -0.31331246     -0.10126298     -0.00144899
 Hf              1.30884936      8.94705215      5.49654462      72       0      -1      -1      34     -0.10183690      0.09799034     -0.06185930
 Hf              6.41991379      9.01080026      0.16837270      72      -1      -1       0      35     -0.13893586     -0.34284825      0.09247486
 Hf              6.42084075      8.93607879      5.44788769      72      -1      -1      -1      35     -0.11020613      0.12499945      0.27065464
 Hf              3.80531310      1.15664915      5.10094259      72       0       0       0      34      0.22336604      0.28912124      0.13074430
 Hf              3.82735593      1.19898011     10.39830821      72       0       0      -1      34     -0.02039847      0.15617236      0.09649836
 Hf              8.91322654      1.16247509      5.05667776      72      -1       0       0      35      0.01625027      0.30262982      0.41438496
 Hf              8.94121251      1.15507038     10.45789786      72      -1       0      -1      35      0.02573150      0.28225841     -0.20979000
 Hf              3.81561145      3.96598451      2.47366654      72       0       0       0      36      0.00937396     -0.74879957      0.22302858
 Hf              3.77511363      3.89357873      7.80223995      72       0       0      -1      35      0.16309817      0.01661768     -0.36723393
 Hf              8.92007539      3.89559903      2.46271848      72      -1       0       0      35      0.04817767      0.02441844     -0.16748614
 Hf              8.94985053      3.92138020      7.73306002      72      -1       0      -1      35     -0.14444070     -0.43347975      0.24490748
 Hf              1.31187116      6.22163531      2.82969377      72       0      -1       0      35     -0.07496986      0.37639872     -0.12607258
 Hf              1.31596753      6.26163551      8.13207345      72       0      -1      -1      34     -0.19657077     -0.13764119      0.13235468
 Hf              6.41017277      6.25794979      2.81179870      72      -1      -1       0      35      0.06717677     -0.09218308      0.25688824
 Hf              6.42800329      6.26412727      8.14789280      72      -1      -1      -1      34     -0.28095680     -0.13845233     -0.09101546
 Hf              3.87150792      6.28124715      5.11470405      72       0      -1       0      35     -0.16538525     -0.40910182      0.06423113
 Hf              3.86531950      6.23226227     10.44450050      72       0      -1      -1      35     -0.12380838      0.29905896     -0.13325411
 Hf              8.96939530      6.24469491      5.11708490      72      -1      -1       0      35     -0.05902420     -0.12010061     -0.11800409
 Hf              8.92434962      6.30053751     10.38253675      72      -1      -1      -1      35      0.30151013     -0.38438769      0.17571099
 Hf              1.25700030      3.85759844      0.20328854      72       0       0       0      34     -0.06430034      0.43413399     -0.02723627
 Hf              1.23840103      3.88576697      5.44445066      72       0       0      -1      34      0.24029922     -0.02328512      0.31249312
 Hf              6.33958653      3.87517505      0.19941935      72      -1       0       0      35      0.33496848      0.21758745     -0.13863858
 Hf              6.31318089      3.88651629      5.53975402      72      -1       0      -1      35      0.27432818     -0.03802971     -0.57145162
 O               0.00710577      0.18930057      1.25261634       8       0       0       0      35      0.03839776     -0.01537905      0.27922866
 O               0.02942548      0.24342500      6.56126872       8       0       0      -1      33     -0.12782154     -0.16099007     -0.03125957
 O               5.09298395      0.26769097      1.25161179       8       0       0       0      34      0.37700387     -0.35988205     -0.04671373
 O               5.15418843      0.18272801      6.53620244       8      -1       0      -1      35     -0.29523986      0.14683932      0.05146727
 O               5.11521489      9.89213183      3.99635294       8      -1      -1       0      33     -0.29566618      0.33403218      0.27447675
 O               5.11076830      9.95296534      9.32146252       8       0      -1      -1      34      0.14575518     -0.21504851      0.08533743
 O              10.18768165      9.87177263      4.04927915       8      -1      -1       0      33      0.30619949      0.14714298     -0.13566487
 O               0.01757981      9.92803199      9.32828741       8       0      -1      -1      33     -0.11658179      0.21192382      0.00977391
 O               2.55175599      9.91847662      3.91633172       8       0      -1       0      33     -0.03411302     -0.05035389     -0.02257370
 O               2.56939516      9.90504884      9.21606829       8       0      -1      -1      33     -0.11311342      0.19704514      0.04149648
 O               7.65133483      9.91561372      3.92741185       8      -1      -1       0      34      0.03368624      0.15279744     -0.37216650
 O               7.69238593      9.94850842      9.20941209       8      -1      -1      -1      33     -0.07923228     -0.12529221     -0.05144018
 O               2.55188338      0.27687285      1.39257703       8       0       0       0      33      0.23004544     -0.72958330     -0.06700937
 O               2.57795140      0.20091463      6.67954251       8       0       0      -1      33      0.02015847      0.24736120      0.09132161
 O               7.67459821      0.23735622      1.37317269       8      -1       0       0      33     -0.01636579      0.01518821      0.36334109
 O               7.66717469      0.18265911      6.66209038       8      -1       0      -1      34      0.35054233      0.03766549      0.06250454
 O               2.54732354      4.84280964      4.02681002       8       0       0       0      33      0.08536862      0.11335303      0.17999616
 O               2.56988168      4.85111893      9.40007629       8       0       0      -1      34     -0.21532997     -0.12826455     -0.56395676
 O               7.67575987      4.85237767      4.03369536       8      -1       0       0      33      0.09447060     -0.06297410      0.02012689
 O               7.67634746      4.86928026      9.36778098       8      -1       0      -1      34     -0.20850632     -0.20373753     -0.53641751
 O               2.55741041      5.28428294      1.29832114       8       0      -1       0      34     -0.30885519     -0.02050446     -0.22796764
 O               2.55089815      5.30357376      6.54395708       8       0      -1      -1      34     -0.17711010     -0.09718462      0.22409033
 O               7.65452177      5.30128725      1.28717949       8      -1      -1       0      33     -0.04948965      0.07193983     -0.24137166
 O               7.65834181      5.31161815      6.53135646       8      -1      -1      -1      34     -0.08267471     -0.36477918      0.59348202
 O               5.08665207      5.36315562      1.37366351       8       0      -1       0      33      0.25238828     -0.45507102      0.27604565
 O               5.07771008      5.28156581      6.67973094       8       0      -1      -1      33      0.21171594      0.11612238      0.25771359
 O              10.22667263      5.28573040      1.33038756       8      -1      -1       0      33     -0.12415972      0.03512627      0.41484070
 O               0.00140355      5.30354362      6.71670534       8       0      -1      -1      33     -0.18522343     -0.08662887     -0.56696877
 O               0.00784426      4.83843957      3.87838115       8       0       0       0      33     -0.08009736     -0.02262004      0.25499928
 O              10.21758280      4.89653283      9.18870474       8      -1       0      -1      34      0.21959137     -0.19849928      0.28664325
 O               5.11872312      4.84938012      3.92562331       8      -1       0       0      34      0.01884874      0.13831353     -0.24201729
 O               5.09577405      4.85525566      9.20695438       8       0       0      -1      33      0.31957082     -0.07311371      0.04308950
 O               0.66878742      7.17671245      4.63574683       8       0      -1       0      29      0.00462128      0.11575091      0.08694148
 O               0.63355108      7.25794171      9.91273416       8       0      -1      -1      30     -0.08113897     -0.21602284      0.12021188
 O               5.77467830      7.17436445      4.62039244       8      -1      -1       0      29      0.05430619      0.24893789      0.12898476
 O               5.76765942      7.21094416      9.93477141       8      -1      -1      -1      30     -0.07622594      0.19720461     -0.04574539
 O               4.46233417      2.95706861      0.69770955       8       0       0       0      29      0.12710367      0.16774306     -0.27161965
 O               4.43290089      2.93759988      5.97839115       8       0       0      -1      29     -0.22279666     -0.33271516     -0.12115334
 O               9.63742620      2.89637195      0.69791990       8      -1       0       0      29     -0.14536669      0.11205646     -0.10460248
 O               9.59300090      2.91864558      5.95854894       8      -1       0      -1      30     -0.18377293      0.19910861     -0.12138986
 O               1.96406481      2.91495366      1.99123292       8       0       0       0      29     -0.35003147      0.19380928      0.01159747
 O               1.85476479      2.95658561      7.29655250       8       0       0      -1      29      0.25450961     -0.06581632      0.13245966
 O               7.02788913      2.96886258      1.96966799       8      -1       0       0      29      0.02560377     -0.27172838      0.16736236
 O               7.02007851      2.88598353      7.21232839       8      -1       0      -1      30      0.29133423      0.33406664      0.58838948
 O               3.25312194      7.17902436      3.29748349       8       0      -1       0      29     -0.20308333      0.27303294      0.23411494
 O               3.15931357      7.20858302      8.64315750       8       0      -1      -1      29      0.20346243      0.00026771     -0.02221006
 O               8.32954018      7.20314171      3.32040352       8      -1      -1       0      30     -0.03237221      0.10881171     -0.08094381
 O               8.29047011      7.23306158      8.60282262       8      -1      -1      -1      30      0.16962206     -0.03277908      0.12787367
 O               3.23850503      7.99588776      0.71546975       8       0      -1       0      30     -0.26194123      0.28011913     -0.33125615
 O               3.21964826      8.02158694      5.97441920       8       0      -1      -1      29     -0.07211128     -0.22549235     -0.13101263
 O               8.24870382      8.04287147      0.66480976       8      -1      -1       0      29      0.42700392     -0.24623132      0.09390651
 O               8.31550367      7.98303159      5.97814184       8      -1      -1      -1      30     -0.00025536      0.10254406     -0.13451808
 O               1.88679938      2.11460846      4.63769094       8       0       0       0      29      0.20121694      0.03082120      0.00323714
 O               1.94823787      2.12287731      9.94833174       8       0       0      -1      29     -0.15755249      0.07856172     -0.31100802
 O               6.96539474      2.12503931      4.60937565       8      -1       0       0      29      0.33208341      0.02135187     -0.05143097
 O               7.00633436      2.12597987      9.97875502       8      -1       0      -1      29      0.05809558      0.08042658     -0.43382719
 O               4.48821422      2.14856553      3.29987223       8       0       0       0      29     -0.25253730     -0.05408308      0.39469270
 O               4.48166529      2.14410122      8.60238908       8       0       0      -1      29     -0.04598853     -0.04955306      0.17554116
 O               9.59413693      2.10234213      3.31282835       8      -1       0       0      29     -0.12216743      0.11184484      0.00395390
 O               9.56904880      2.15221626      8.62113718       8      -1       0      -1      29      0.01673216     -0.05749486      0.22223736
 O               0.65940997      8.00631868      1.98242554       8       0      -1       0      29     -0.04800478     -0.11688687     -0.06440756
 O               0.63357647      8.02987170      7.29088541       8       0      -1      -1      29      0.13680556     -0.06690533     -0.27810249
 O               5.77189032      8.04704006      1.98415359       8      -1      -1       0      29      0.10140768     -0.04253820     -0.01215500
 O               5.74344751      7.97565278      7.29771540       8      -1      -1      -1      30     -0.01540198      0.19874175     -0.27243455
 96
 energy=490.89440721375280 cutoff=4.00000000 nneightol=1.20000000 pbc="T T T" Lattice="10.22223411       0.00000000       0.00000000       0.00000000      10.13605401       0.00000000       0.00000000       0.00000000      10.58735487" Properties=species:S:1:pos:R:3:Z:I:1:map_shift:I:3:n_neighb:I:1:force:R:3
 Hf              1.28083723      1.15280540      2.84040067      72       0       0       0      34     -0.17012760      0.29679045     -0.07166627
 Hf              1.25380531      1.17106879      8.16652751      72       0       0      -1      35      0.04253384      0.16904208     -0.46620565
 Hf              6.31265395      1.20032884      2.82952707      72      -1       0       0      35      0.35365291      0.01725964     -0.08063536
 Hf              6.42937774      1.10655857      8.11692117      72      -1       0      -1      36     -0.31406351      0.90883498     -0.28671704