96
Lattice="10.234998135366 0.000000000000 0.000000000000 0.000000000000 10.152576724096 0.000000000000 0.000000000000 0.000000000000 10.606248980017" Properties=species:S:1:pos:R:3:forces:R:3 pbc="T T T"
Hf 1.282185341200 1.155473165239 2.845307861259 -0.342633723277 0.260171856421 -0.165016268078
Hf 1.256530645030 1.172145401700 8.180114838614 -0.074870596142 0.252032462017 -0.708836253119
Hf 6.321809030285 1.200484555475 2.833867265320 0.592972983049 0.242769984575 0.079051646246
Hf 6.435877944132 1.109904946086 8.132203429035 -0.657214055211 0.999922292952 -0.174245650649
Hf 3.880319364179 8.998212990426 2.446397804349 -0.247699061264 -0.372226003965 0.376609445839
Hf 3.862944021830 8.975095815109 7.782869865322 0.062923028915 -0.165978825915 -0.194932260082
Hf 8.954916929068 8.966184832241 2.479540605705 0.282752666816 0.063703077671 -0.261216307754
Hf 9.012504422182 9.003993429839 7.739926065568 -0.281151099533 -0.230591624195 0.244236555239
Hf 1.352088389424 8.970955810290 0.194604156783 -0.748935902983 -0.148007033900 -0.024515772428
Hf 1.309285888584 8.953851059316 5.500669761484 -0.215720967692 0.144279799635 -0.119909606351
Hf 6.422704662989 9.016614273301 0.168717368701 -0.258941763743 -0.415878728943 0.289655415536
Hf 6.424398906513 8.942649164779 5.452388873027 -0.115439411379 0.147301983263 0.420504054632
Hf 3.807445564079 1.157542816603 5.104740062316 0.439288138637 0.313487976717 0.319215281829
Hf 3.829119862828 1.199152070959 10.406892780116 0.129429604077 0.293327266949 -0.014244108037
Hf 8.918482167034 1.163062838615 5.061494734421 0.119844954047 0.318284644562 0.654011357129
Hf 8.945478578735 1.156195628068 10.465594637696 0.096488693076 0.265012236671 -0.447053821924
Hf 3.817589248267 3.968251564603 2.474904159442 0.137159688106 -0.676677659075 0.314963395263
Hf 3.778389209171 3.896608663963 7.808013585876 0.113645552336 0.056301016561 -0.605230623689
Hf 8.925450802179 3.898517537993 2.464283448897 -0.034938450321 0.281666847881 -0.112583848745
Hf 8.954286866022 3.924401435932 7.739246340638 -0.033893369119 -0.357616852612 0.308534265643
Hf 1.312385703888 6.226279931336 2.831870996070 -0.327952456120 0.407837037167 -0.218969804728
Hf 1.316791681612 6.266218732368 8.137917232160 -0.315667396716 -0.230742049374 0.316216876298
Hf 6.413042366642 6.262389172927 2.813699646153 0.214106762248 -0.279424151557 0.318397637444
Hf 6.431399370137 6.268437447532 8.153653745655 -0.425679934574 -0.385392978532 -0.131577735925
Hf 3.873199509190 6.285242065795 5.118580978532 -0.290584500762 -0.637410677216 0.015859852108
Hf 3.867427382427 6.236651014998 10.452713347936 -0.098992714587 0.193848681596 -0.501409205975
Hf 8.974061338556 6.249608287722 5.120971342450 -0.063999619257 -0.252347550587 -0.186581670022
Hf 8.929378356002 6.304275415322 10.391375912506 0.616874855165 -0.533344983468 0.319288282483
Hf 1.258484099510 3.860868621131 0.203119603423 -0.146464304101 0.581022543710 0.186699461145
Hf 1.239067968622 3.888750861272 5.448566475988 0.264852707263 0.097168523766 0.762477535059
Hf 6.343105672571 3.878577609554 0.199994517592 0.527854473300 0.174403142885 -0.336859060842
Hf 6.317146977230 3.889951484512 5.543267934224 0.490600242521 0.048210316009 -0.802503029309
O 0.009877493313 0.187959895576 1.255012204460 0.090908884901 -0.034879657173 0.214453958281
O 0.028990598822 0.240394002702 6.568822971855 -0.228777100548 -0.206563400164 -0.184333521662
O 5.098622893189 0.267442783674 1.252017913441 0.264523421138 -0.476338471428 -0.082119989755
O 5.155342152936 0.187623804861 6.539059273427 -0.243966618443 0.030853604455 0.049230278225
O 5.118776213449 9.902870369825 3.999865609065 -0.276607121602 0.249963919194 0.245628002408
O 5.114062892247 9.958364422904 9.329165260481 0.188575283999 -0.202460593068 -0.070462838036
O 10.195075354691 9.880128473876 4.052286779571 0.280609190146 0.208165083434 -0.087020259366
O 0.017149086831 9.934890817286 9.335729748506 -0.123884779382 0.247217071081 0.166899658770
O 2.554228007119 9.925101978708 3.920830024774 -0.051047134120 -0.010124076176 -0.064960969720
O 2.568087336276 9.912759673700 9.225122783614 0.072949131673 0.230235841406 0.143290327226
O 7.652797063097 9.921335834394 3.931197992314 -0.017679663735 0.020529458229 -0.358189129728
O 7.696161047952 9.949630827101 9.216593640362 -0.002734203381 -0.191983064781 -0.018072745394
O 2.553971688050 0.276149647804 1.395995031259 0.438892693889 -0.678714667270 -0.157555335019
O 2.578409293427 0.201198146411 6.686384601567 0.012388575126 0.167764114047 0.251885182712
O 7.681697824783 0.239417964161 1.373243022952 -0.129155858181 -0.024553548431 0.331283153568
O 7.671009521797 0.182156981468 6.669961734143 0.450300449543 -0.030649913452 0.103660837937
O 2.551713822480 4.844052555932 4.031389356306 0.222626102335 0.144561789977 0.001401043175
O 2.567939014027 4.855272423447 9.404356052422 -0.176240891386 -0.013357410790 -0.385178716029
O 7.683476901745 4.853388199815 4.041260586929 0.018855443717 0.006974701209 -0.030750083244
O 7.679186748056 4.872343978235 9.374915583873 -0.153465614566 -0.112437430934 -0.336549866277
O 2.557897788685 5.287024699665 1.297098081717 -0.173742650254 -0.016427058559 -0.182189824265
O 2.553178919652 5.309360492367 6.548182333755 -0.217407015255 -0.134939580083 0.180596316012
O 7.660731025249 5.304830632530 1.285825518094 -0.022404452602 0.032513462423 -0.181342276202
O 7.665100924905 5.318568480449 6.536766544203 -0.159008687673 -0.402390613456 0.612830099356
O 5.087338119114 5.362522460959 1.375391567489 0.198547933567 -0.423615227480 0.207636102333
O 5.081196661092 5.285922702801 6.687091663678 0.299683018877 -0.032806957753 0.299620207660
O 10.228282858936 5.286805242418 1.334825383789 -0.060752088501 -0.016174922139 0.491099862779
O 0.003107618482 5.306684750140 6.724287290501 -0.260602078466 -0.100692735821 -0.798907158828
O 0.011576737047 4.839085448659 3.883383066193 -0.042916052323 0.026450727523 0.151191357914
O 10.221476903950 4.898986718049 9.196620246502 0.227602456889 -0.124316798298 0.204391862375
O 5.123576557288 4.853146565889 3.928706524962 -0.076516534524 0.144937301102 -0.406712779355
O 5.098813886202 4.859010774102 9.214225674798 0.237610616459 0.154885801097 0.177270780176
O 0.670684935449 7.179459001223 4.640624698780 0.049065219398 0.158052866211 0.054709854127
O 0.632262850611 7.261713734744 9.918531654301 -0.139914911504 -0.143459332857 0.069586010666
O 5.779851474824 7.179994294012 4.627583599860 0.010100027679 0.340839337501 0.129982416554
O 5.774469909233 7.219099596391 9.942932900658 -0.116543141317 0.180788910718 0.030374111611
O 4.465869777838 2.958439990557 0.698273680575 0.093382962330 0.089245217239 -0.223467725538
O 4.434833928040 2.937347065785 5.981138430724 -0.155756087626 -0.254163563005 0.004612472788
O 9.641444131194 2.897235565556 0.700934465006 -0.145808475285 -0.005885522872 -0.032466014587
O 9.598867991821 2.920607835260 5.962678399706 -0.147011614911 0.205755675411 -0.088669746655
O 1.966766436420 2.914840628473 1.991417531438 -0.360946375747 0.116129616459 -0.071643864186
O 1.851816986502 2.958239773541 7.302111130264 0.262583348562 -0.063503489956 0.060804696758
O 7.028214753955 2.969762979644 1.969844203714 -0.043269950347 -0.340095172045 0.170295521378
O 7.023878599786 2.885855904937 7.217941162274 0.282248335395 0.115738256193 0.670933517733
O 3.257610706261 7.182422558825 3.300560446668 -0.180118235323 0.316855931687 0.149121673501
O 3.160325103790 7.217272862615 8.647515521948 0.388479336365 0.216631696770 0.020975871327
O 8.333834389649 7.207989021088 3.324775604623 -0.107657667973 0.074922592564 -0.005994289144
O 8.295881355607 7.237927470146 8.610173785714 0.170382076569 0.144906937411 0.093835526666
O 3.237979258323 8.002611947793 0.718479411786 -0.269038154284 0.218599414726 -0.407051110763
O 3.222544287381 8.028805930490 5.978148281330 -0.100256508147 -0.042744738539 0.022828549023
O 8.260728479601 8.050739890774 0.668404329869 0.342734905586 -0.267956023583 0.057935532920
O 8.321003093484 7.989817308271 5.985878924800 0.010913975495 0.181837953530 -0.106491231571
O 1.886537828310 2.118861585975 4.642679138408 0.295891830469 -0.128419704346 -0.132486832364
O 1.946137063276 2.123380189461 9.957498663540 -0.183043332504 -0.020438177187 -0.298852118400
O 6.967833869576 2.124189446657 4.612245288650 0.405698912194 -0.044021090882 -0.096454768836
O 7.011823621065 2.127910236554 9.984074103071 0.058798625617 -0.111838062182 -0.515081706087
O 4.489718799513 2.152120757607 3.305215701556 -0.388814075144 -0.098567588761 0.339187343686
O 4.479861729050 2.143471392335 8.607517549952 -0.031141350838 -0.108886174815 0.273505605664
O 9.596288143026 2.104095014612 3.311826013771 -0.103086865994 0.154472655891 0.006984595332
O 9.572170482725 2.152328654006 8.627088184365 0.126547052804 -0.134296663177 0.282720146706
O 0.661000359141 8.010568207694 1.985277813380 -0.048107838768 -0.147346397942 0.003955084518
O 0.636437354464 8.034200382962 7.298513770643 0.113064406424 -0.134309040406 -0.326154864649
O 5.778584103046 8.050060602999 1.987436354041 0.000911064272 0.129957493146 -0.157586980606
O 5.747936316404 7.976159680048 7.303455281899 -0.085467173540 0.514456867510 -0.388006849838
96
Lattice="10.229478804157 0.000000000000 0.000000000000 0.000000000000 10.145443193912 0.000000000000 0.000000000000 0.000000000000 10.598018365019" Properties=species:S:1:pos:R:3:forces:R:3 pbc="T T T"
Hf 1.281627821085 1.154263661557 2.843184993149 -0.346203853673 0.250816279677 -0.183945890761
Hf 1.255279115135 1.171727779944 8.174275506579 -0.040604931401 0.243173244903 -0.726836190944
Hf 6.317752354298 1.200527808742 2.832018245861 0.611183175048 0.216817990146 0.052793165184
Hf 6.433183676442 1.108332419699 8.125502742088 -0.696007265888 1.039856677112 -0.182392742205
Hf 3.878737638812 8.991682225686 2.444772955447 -0.264736986000 -0.377689531968 0.334350579709
Hf 3.861247143781 8.969014705668 7.776749699367 0.065083004042 -0.184692068286 -0.175352812259
Hf 8.950461198899 8.959742940582 2.477819333092 0.268224389971 0.065427318921 -0.259395682203
Hf 9.008540791135 8.997899079798 7.733973332707 -0.307148883982 -0.207438928975 0.210931843329
Hf 1.351526467394 8.963953132231 0.194853067069 -0.701839342960 -0.122178935761 -0.018009567471
Hf 1.308849364099 8.947052146343 5.496544619672 -0.224380665972 0.173758006749 -0.159276070714
Hf 6.419913790132 9.010800264697 0.168372695648 -0.347959553078 -0.429282471434 0.299012527312
Hf 6.420840746651 8.936078794890 5.447887690006 -0.109490321266 0.131567623024 0.409619768024
Hf 3.805313099848 1.156649149660 5.100942594293 0.443506622624 0.303073844443 0.326563880288
Hf 3.827355926576 1.198980113719 10.398308210524 0.144651138233 0.275368009057 -0.010733803226
Hf 8.913226544758 1.162475086566 5.056677757376 0.128349441618 0.294369149745 0.680061439357
Hf 8.941212508962 1.155070384459 10.457897856747 0.065369493496 0.279347210454 -0.442722078662
Hf 3.815611447711 3.965984508815 2.473666541523 0.140164211796 -0.645555080132 0.277354155679
Hf 3.775113628138 3.893578725946 7.802239952411 0.154812755044 0.074478022407 -0.575317343260
Hf 8.920075385906 3.895599031108 2.462718484291 -0.023837030175 0.303539864316 -0.130950017915
Hf 8.949850533000 3.921380200459 7.733060019771 -0.063358125271 -0.347969452242 0.300747739357
Hf 1.311871162528 6.221635314247 2.829693765858 -0.334843305650 0.427672709380 -0.250880876912
Hf 1.315967529743 6.261635510577 8.132073453244 -0.283715859914 -0.227138251584 0.319909150598
Hf 6.410172765351 6.257949790033 2.811798698487 0.184330739582 -0.267497502803 0.275704026197
Hf 6.428003294676 6.264127268786 8.147892802084 -0.485760934197 -0.380903301259 -0.150138377228
Hf 3.871507923124 6.281247147519 5.114704047391 -0.302504710916 -0.656696895498 0.001083431050
Hf 3.865319500486 6.232262271669 10.444500497896 -0.083160570590 0.180605127933 -0.484548485459
Hf 8.969395304426 6.244694907885 5.117084902941 -0.087058997729 -0.263099342621 -0.208170791532
Hf 8.924349618634 6.300537513222 10.382536748656 0.620659605697 -0.561228178496 0.374517950711
Hf 1.257000301336 3.857598443286 0.203288539126 -0.096752332088 0.617510483829 0.190853411026
Hf 1.238401034160 3.885766969580 5.444450658015 0.259443179124 0.088595327126 0.747825277136
Hf 6.339586527448 3.875175047829 0.199419350264 0.504887980807 0.215059589274 -0.334770012006
Hf 6.313180891168 3.886516288009 5.539754024850 0.489100592631 0.084425541046 -0.825622656087
O 0.007105768028 0.189300573062 1.252616341963 0.106584762843 -0.044010708310 0.230755846602
O 0.029425482598 0.243424996136 6.561268716910 -0.225708889157 -0.223678105407 -0.148664037472
O 5.092983951142 0.267690972722 1.251611789930 0.301868585188 -0.453458335514 -0.084404868852
O 5.154188427757 0.182728012258 6.536202440315 -0.278735893973 0.115050127800 0.010660586456
O 5.115214885811 9.892131828097 3.996352936887 -0.258161495727 0.290954319659 0.275308364784
O 5.110768296980 9.952965340183 9.321462516641 0.216436053520 -0.226565089671 -0.069240298465
O 10.187681647265 9.871772632098 4.049279147924 0.310587791249 0.202936504760 -0.101447799011
O 0.017579811670 9.928031990095 9.328287406981 -0.126964994558 0.235458584037 0.155731906277
O 2.551755990588 9.918476623494 3.916331720970 -0.036385919161 -0.019073309085 -0.043874955440
O 2.569395161122 9.905048840044 9.216068286870 0.018545249018 0.238651261163 0.155459631983
O 7.651334826385 9.915613720848 3.927411848622 -0.074059291358 0.020283431887 -0.351165054788
O 7.692385928960 9.948508421829 9.209412089985 0.032156142967 -0.268743878455 -0.027468343034
O 2.551883377845 0.276872848493 1.392577034009 0.420037833054 -0.680963829167 -0.143090337314
O 2.577951403165 0.200914627759 6.679542513699 0.011588722576 0.185133507416 0.260613521916
O 7.674598211149 0.237356219685 1.373172693144 -0.101027628682 -0.004512120764 0.312661152003
O 7.667174689550 0.182659113369 6.662090377568 0.461916678531 -0.039061172303 0.130071611913
O 2.547323543013 4.842809640685 4.026810016651 0.230504077889 0.113391317904 0.038826184063
O 2.569881683464 4.851118927326 9.400076290900 -0.245670915896 -0.031339401921 -0.417094173540
O 7.675759866714 4.852377674525 4.033695355017 0.045059543430 -0.008073023958 0.022191993504
O 7.676347461030 4.869280257841 9.367780979583 -0.157421515389 -0.117614496141 -0.336942837758
O 2.557410412716 5.284282936515 1.298321144895 -0.173077609002 -0.026435499986 -0.189307639829
O 2.550898151526 5.303573764439 6.543957083485 -0.229920588246 -0.105933256155 0.168039155869
O 7.654521770192 5.301287248441 1.287179490801 0.046341252079 0.031312626292 -0.236003834990
O 7.658341807481 5.311618149900 6.531356456450 -0.117598764950 -0.355870029605 0.602208252781
O 5.086652073358 5.363155617740 1.373663508794 0.173477152471 -0.481473683392 0.235866516812
O 5.077710081749 5.281565808943 6.679730943898 0.296704308066 0.015027697466 0.334088172348
O 10.226672626566 5.285730398195 1.330387562216 -0.118458305211 -0.027515705053 0.500696059330
O 0.001403545755 5.303543623776 6.716705336067 -0.241023072012 -0.090382531395 -0.786219276014
O 0.007844263039 4.838439572580 3.878381153085 -0.013709174700 -0.006194313752 0.178318156629
O 10.217582798321 4.896532833175 9.188704735142 0.227247189928 -0.127177977713 0.188086328875
O 5.118723117659 4.849380124676 3.925623307000 -0.078052361731 0.130496254503 -0.409235986873
O 5.095774046439 4.855255658582 9.206954379139 0.275973202455 0.139550547104 0.161749021082
O 0.668787424517 7.176712446141 4.635746827649 0.049778747593 0.130360340772 0.065396223235
O 0.633551080836 7.257941712200 9.912734157664 -0.170850427387 -0.175934050184 0.023870685203
O 5.774678299260 7.174364452688 4.620392440225 0.020743342278 0.366672848888 0.181437958511
O 5.767659423303 7.210944157439 9.934771411712 -0.055629707920 0.232005342332 0.016915090489
O 4.462334173268 2.957068612789 0.697709551777 0.110966138705 0.115684255402 -0.204111178708
O 4.432900892466 2.937599881718 5.978391147527 -0.177662177357 -0.323819464331 -0.043782085898
O 9.637426199168 2.896371951344 0.697919904969 -0.168877928715 -0.005731676884 -0.002261932964
O 9.593000895019 2.918645579838 5.958548936916 -0.123385764838 0.229063004899 -0.086337930873
O 1.964064813827 2.914953664172 1.991232920123 -0.362761815745 0.100942294428 -0.069652469820
O 1.854764787161 2.956585610732 7.296552495822 0.212604003403 -0.080204728436 0.047998324088
O 7.027889130542 2.968862579535 1.969667993035 -0.071499134087 -0.381113188548 0.170496062210
O 7.020078508236 2.885983532952 7.212328391671 0.294193734428 0.068621414093 0.710457885519
O 3.253121941395 7.179024362200 3.297483490643 -0.170853518509 0.300214259135 0.165775604861
O 3.159313568699 7.208583019032 8.643157496045 0.369520743833 0.260505195152 -0.045167049002
O 8.329540182113 7.203141705352 3.320403523275 -0.105719768523 0.079982592402 -0.007835261051
O 8.290470109876 7.233061578896 8.602822624667 0.183333440617 0.167095396790 0.075263290866
O 3.238505026930 7.995887761716 0.715469753384 -0.313545998847 0.273577549603 -0.377243512038
O 3.219648259983 8.021586944422 5.974419196486 -0.106355962340 -0.032684141395 0.024688913111
O 8.248703824227 8.042871471208 0.664809759617 0.397521358478 -0.257658191750 0.076640976385
O 8.315503670227 7.983031586259 5.978141835963 0.010446732513 0.207179650378 -0.063024315497
O 1.886799377233 2.114608464431 4.637690939815 0.295653748805 -0.077115548506 -0.091627529593
O 1.948237871469 2.122877307319 9.948331743100 -0.214132372885 -0.029122392994 -0.302570966234
O 6.965394743556 2.125039305530 4.609375645975 0.391374547335 -0.078554105308 -0.114216738458
O 7.006334355411 2.125979866823 9.978755020928 0.081104914013 -0.114458171292 -0.524374154047
O 4.488214221836 2.148565531945 3.299872233593 -0.410103055026 -0.084743368213 0.376757690132
O 4.481665293492 2.144101217397 8.602389081557 -0.043011806069 -0.123674674356 0.252328328670
O 9.594136928338 2.102342131188 3.312828349855 -0.116875945864 0.194909488268 -0.044607424004
O 9.569048802143 2.152216263611 8.621137183039 0.124696453852 -0.152119516411 0.283872017655
O 0.659409966573 8.006318680908 1.982425541601 -0.048527670814 -0.142838649692 0.006028273131
O 0.633576472069 8.029871704193 7.290885407623 0.128460997988 -0.161635154924 -0.289798808729
O 5.771890324874 8.047040056967 1.984153592162 0.049548058795 0.104120209766 -0.141200416715
O 5.743447510902 7.975652778336 7.297715404700 -0.039608692181 0.416211390186 -0.369553516391
96
Lattice="10.222234107347 0.000000000000 0.000000000000 0.000000000000 10.136054008352 0.000000000000 0.000000000000 0.000000000000 10.587354873108" Properties=species:S:1:pos:R:3:forces:R:3 pbc="T T T"
Hf 1.280837230554 1.152805404394 2.840400667168 -0.350353650135 0.237427705853 -0.205930206737
Hf 1.253805310579 1.171068786281 8.166527510908 -0.005583510737 0.231168949585 -0.746683545815
Hf 6.312653953517 1.200328840411 2.829527073031 0.630116748002 0.184951641057 0.023959256844
Hf 6.429377736881 1.106558569445 8.116921168739 -0.735973557875 1.078818393748 -0.191585288829
Hf 3.876494711354 8.983128731806 2.442609066348 -0.284157441883 -0.378963632158 0.292418357480
Hf 3.858908161449 8.960932714427 7.768833587947 0.066899877710 -0.199352413892 -0.154848113855
Hf 8.944515858946 8.951310511306 2.475518079636 0.254669701054 0.069960301689 -0.257852982918
Hf 9.003054030348 8.989796290251 7.726257454972 -0.334322953064 -0.181055693207 0.179359047877
Hf 1.350700806291 8.954940663698 0.195062079909 -0.653351529758 -0.091328133423 -0.011979435245
Hf 1.308183781464 8.938266100050 5.491151106847 -0.231559619279 0.207537071468 -0.202058515221
Hf 6.416030926250 9.002967073617 0.168002543785 -0.439771511231 -0.438373906545 0.305259123864
Hf 6.416192285487 8.927524641876 5.442154268479 -0.102440476846 0.120667585072 0.397966915501
Hf 3.802561803926 1.155513655980 5.095994318168 0.446507953536 0.288036632523 0.334187100027
Hf 3.824958694881 1.198566325002 10.387328630945 0.160022236959 0.251696282657 -0.006246197480
Hf 8.906468066934 1.161648241506 5.050724072148 0.136520372196 0.267503463659 0.709347813740
Hf 8.935450027030 1.153698993515 10.447782434094 0.031811189578 0.292864653946 -0.439495800618
Hf 3.812998889867 3.962808116045 2.471886097920 0.141719665167 -0.616519009990 0.240098993081
Hf 3.771191750191 3.889682931171 7.794648066691 0.196637913764 0.093908612745 -0.542541637030
Hf 8.913185986601 3.891828328849 2.460586098709 -0.011408719680 0.326041748713 -0.148390503276
Hf 8.943906916757 3.917464337065 7.725112250556 -0.095529033517 -0.338036261536 0.296078593852
Hf 1.311119929555 6.215626792100 2.826853588712 -0.344243586864 0.448677369886 -0.283704433308
Hf 1.314904314012 6.255645139214 8.124387148382 -0.251180208153 -0.224598962340 0.320276980177
Hf 6.406240577299 6.252103931274 2.809271393160 0.155096529747 -0.253723666683 0.230258684652
Hf 6.423497633771 6.258405006090 8.140261490807 -0.545859661894 -0.377419254566 -0.169867191015
Hf 3.869152645669 6.275826077324 5.109654429192 -0.316205736994 -0.676340139695 -0.012238613316
Hf 3.862554818135 6.226497633988 10.433862157299 -0.067375953604 0.166372226270 -0.466624935414
Hf 8.963214216853 6.238371218397 5.112013725644 -0.109491297371 -0.274781468076 -0.228482005243
Hf 8.917846336734 6.295378298381 10.371323294569 0.626258245982 -0.591425140251 0.431910179027
Hf 1.255287520951 3.853496116927 0.203425946079 -0.047543064883 0.655216985832 0.191821576376
Hf 1.237539367305 3.881920315603 5.439127362966 0.254082370020 0.080891668493 0.731446139304
Hf 6.335024166293 3.870912774741 0.198774072800 0.483039343793 0.257913110056 -0.335415860168
Hf 6.308168484436 3.882211387997 5.534934911473 0.488911826109 0.120265190659 -0.849960810737
O 0.004357382642 0.190593836915 1.250052424324 0.123591410503 -0.052073787292 0.247743917012
O 0.029724849242 0.246312513938 6.552082246413 -0.220083891350 -0.236842631668 -0.112509567113
O 5.086627366149 0.267610545669 1.250875297728 0.337609484632 -0.424431725671 -0.086469065212
O 5.152019690328 0.177792231181 6.531883870174 -0.310412425985 0.197422945325 -0.026244462191
O 5.110622340724 9.879315730817 3.992084149283 -0.237182992027 0.330441140551 0.304440242639
O 5.106735356506 9.945239003598 9.311571151047 0.242422561660 -0.251521961550 -0.067415774189
O 10.178730729938 9.861324698716 4.045282335804 0.339130298489 0.195777996553 -0.116597583116
O 0.017936843681 9.919110636429 9.318795388302 -0.129039108948 0.218758550591 0.144002441162
O 2.548815569669 9.909639552625 3.910886574891 -0.021418621979 -0.031054114189 -0.022323055449
O 2.570320013916 9.895269918874 9.204965025947 -0.038580449397 0.244870450623 0.167836339449
O 7.648575808582 9.907717524602 3.922500135045 -0.132023106342 0.018742624994 -0.341555274065
O 7.687338349788 9.945096207149 9.200099319517 0.068730616640 -0.348277310304 -0.033319783074
O 2.549609459692 0.277134194093 1.388718503937 0.397925223852 -0.675664838284 -0.126381496818
O 2.577079291976 0.200696826611 6.671301340066 0.009044859183 0.203731529973 0.268457425287
O 7.666099810203 0.235211439661 1.372991522561 -0.070002685846 0.017670320185 0.291525747803
O 7.662331632106 0.183106066886 6.652729501036 0.468998246764 -0.043762759626 0.155014142977
O 2.542599824903 4.840590296525 4.021308776645 0.238054441241 0.079548984377 0.078622848200
O 2.571290032080 4.845857051176 9.393429174691 -0.313863807479 -0.050939087329 -0.448069680849
O 7.666723626544 4.850318286621 4.025153245518 0.071150876296 -0.026935612766 0.080654463814
O 7.672136731983 4.865067729124 9.358293288378 -0.159474455687 -0.124278219993 -0.336424349120
O 2.556399520033 5.280364395369 1.299163588089 -0.170683745090 -0.033911482991 -0.196895052007
O 2.548034336934 5.296513649743 6.538344121527 -0.240046714512 -0.073717086174 0.154139121549
O 7.647019404911 5.296586913039 1.288128812923 0.115734893812 0.030237849464 -0.291782498683
O 7.650181397256 5.303224008657 6.524807919293 -0.074409689131 -0.303713825248 0.586887075307
O 5.085243356111 5.362367888835 1.371753777119 0.146183400669 -0.536899519326 0.261592747679
O 5.073536442334 5.276034438982 6.671008193793 0.290249965954 0.065532585123 0.367061601990
O 0.001093607403 5.283502024990 1.325899016278 -0.178807405587 -0.033371661455 0.510414406756
O 10.221756789800 5.299176990486 6.707069573229 -0.218409095070 -0.076463060099 -0.767668941568
O 0.004047985537 4.836754228156 3.872568330431 0.015687481399 -0.039415039225 0.205389536863
O 10.212126882697 4.892927408091 9.178782794397 0.225027265829 -0.132132206463 0.170191280974
O 5.112928531215 4.844609596176 3.921389846352 -0.076313527572 0.114231095972 -0.405540323697
O 5.092038137730 4.850500873711 9.197666030155 0.312537122581 0.121766181267 0.145719116897
O 0.666785028519 7.172482864049 4.629825940858 0.049361554758 0.098324211153 0.075425109502
O 0.634652350419 7.252468488624 9.904703208138 -0.201528996217 -0.211284284386 -0.023592199226
O 5.768513847131 7.167353742829 4.612198501431 0.030215097925 0.387253303820 0.232838027883
O 5.759788616571 7.201281606648 9.924333097404 0.006000291110 0.281367354929 0.003367171234
O 4.458096944662 2.955120334224 0.696860952888 0.126465372329 0.142334179401 -0.183257212245
O 4.430118923795 2.937036555655 5.974272407683 -0.197266494739 -0.388978405530 -0.092440193159
O 9.631697347945 2.894877936339 0.694707842819 -0.193380438251 -0.003177226391 0.028520378266
O 9.585430797684 2.916174859602 5.953006423160 -0.099798920224 0.251281068568 -0.084549091958
O 1.960787720436 2.914511339188 1.990568674604 -0.361778475726 0.082594285846 -0.066986097498
O 1.857586246167 2.954231555595 7.289349591409 0.159423174737 -0.095554897941 0.033915101419
O 7.026385058716 2.967087854188 1.969162847666 -0.100814461536 -0.419198615615 0.169355575574
O 7.015272888683 2.885542525066 7.205491338383 0.304097754941 0.022310127716 0.746680693601
O 3.247940999586 7.174236355330 3.293742764569 -0.160368690626 0.280697118432 0.180663249880
O 3.158003688177 7.198396113490 8.636822113125 0.347237339221 0.300875051816 -0.113117848942
O 8.323779752323 7.196744642326 3.315238402868 -0.103623088115 0.081897527547 -0.010066205327
O 8.283758278757 7.226692237861 8.593532586689 0.195237553289 0.186891716760 0.054702713919
O 3.238327130986 7.987536003259 0.712031063082 -0.356600221448 0.326859963781 -0.346499768359
O 3.216127751346 8.012541718795 5.969346851665 -0.112259551144 -0.021751921508 0.025442223112
O 8.235419343442 8.033026210847 0.661064416768 0.463639696136 -0.247681483256 0.095533244864
O 8.308593338828 7.974579793806 5.968949179354 0.010343649628 0.231662649063 -0.020304424572
O 1.886940860861 2.109798176067 4.631562319774 0.293961058007 -0.019415405886 -0.046873541252
O 1.949925791492 2.121899128934 9.936676372068 -0.243756876767 -0.036850426821 -0.303471512446
O 6.962037682576 2.125403032560 4.605388813680 0.374549017421 -0.112064648407 -0.127489510663
O 6.999687801128 2.123500973831 9.970862010661 0.103123900655 -0.117369395719 -0.529696071187
O 4.485716847893 2.144451440268 3.293959706953 -0.432202653633 -0.068355976317 0.410638180216
O 4.482748146747 2.144210264161 8.595461668052 -0.053752305781 -0.138668072106 0.227730002992
O 9.590340458245 2.100236232013 3.313095028355 -0.132289839994 0.236701325038 -0.100453946002
O 9.564418542232 2.151553314892 8.613390357076 0.121385958986 -0.168876307283 0.282482806224
O 0.657660944181 8.000222375144 1.979102779794 -0.048649455268 -0.136988371238 0.009382261483
O 0.630650168098 8.023678683378 7.281378764850 0.145952873962 -0.189623113892 -0.248771628977
O 5.764201128329 8.042331952529 1.980304280919 0.099511581807 0.074822703596 -0.121895050646
O 5.737945732820 7.973699541581 7.290074742998 0.010295707207 0.308637727935 -0.348190672498
