128
Lattice="20.0763846187 0.0 0.0 -10.0381923094 17.38665923 0.0 0.0 0.0 30.0" Properties=species:S:1:pos:R:3:forces:R:3 pbc="T T T"
Ti 6.273856835157 9.417774561456 16.340227181135 0.009312404039 -0.005392449869 0.039074879325 
N 4.876357781332 10.224623128704 15.410818822968 0.036844855528 -0.021328373779 0.024141139834 
N 1.0038168e-05 1.448881706907 14.999992062346 -0.011725911056 0.006797987614 0.009865336026 
N 2.508883856592 1.44650215084 14.997591520599 -0.025443797094 -0.023077381739 -0.001559666477 
N 5.019585519426 1.443660327238 14.990230517484 -0.029224843341 -0.039897132451 -0.01777391669 
N 7.529028098487 1.443242821622 14.990708516269 0.032998074228 -0.031772107079 -0.015175580546 
N 10.040222920356 1.446101299894 15.005178531627 0.02426837925 -0.02198602887 -0.005563479676 
N 12.550253397902 1.449840455476 15.008661568747 -0.015114448778 -0.011067006399 -0.000129815385 
N 15.058887471277 1.449601162988 15.00582960025 -0.026822558456 -0.002971068397 0.001161479278 
N 17.566209659988 1.449686583621 15.005444922448 0.029030314073 0.01343181745 -0.001140217406 
N -1.255776077143 3.622353048279 15.005444772436 0.002920136509 -0.031859157838 -0.00114284828 
N 1.252642490422 3.621801143841 14.985981403741 -0.005553706629 -0.022728589958 -0.008311662045 
N 3.75939440874 3.608608645856 14.942752650659 -0.007082437906 0.037530672335 -0.019600260013 
N 6.274182669707 3.607278205476 14.926694520112 0.002922453354 0.007833493314 -0.014436337828 
N 8.788906307821 3.608362529145 14.942743770649 0.010700138465 0.033667996605 -0.016889489517 
N 11.295480670665 3.621500203546 14.987712549865 0.005967574095 -0.022666837666 -0.00622757568 
N 13.804405286306 3.622777445988 15.005441661475 -0.014821616233 -0.034322896337 0.00114460325 
N 16.311592399205 3.622484727823 15.003694771405 0.022619575505 -0.013079914445 0.011158062098 
N -2.509363224209 5.793799879455 15.005829585243 -0.010811132789 0.024717853565 0.001174286606 
N -0.001688507393 5.794800169929 14.992241842434 0.008929876688 -0.01572210659 -0.007766460549 
N 2.506905790659 5.793156641214 14.965482072581 0.013032480946 -0.03880388283 -0.029464048644 
N 5.008255137672 5.764024735334 14.93923535351 -0.010666053823 -0.010536120058 0.004093072829 
N 7.540895808285 5.764054504759 14.93899006161 0.006310812306 -0.01059426774 0.004553342897 
N 10.042101343206 5.793075909787 14.965094433829 -0.017018335005 -0.04028747612 -0.029107605275 
N 12.550606841428 5.793891194156 14.991784777714 -0.015379667885 0.00882989643 -0.007564447237 
N 15.057745642536 5.793625828642 15.005441754461 0.022296865538 0.029982042182 0.001148419505 
N -3.763886666066 7.966221853048 15.008661688746 0.002051707019 0.01865456646 -0.000126954718 
N -1.255181700049 7.967370010048 14.987663241873 -0.035392940158 0.001695884698 -0.005498172333 
N 1.252075337856 7.966815603666 14.964923670923 -0.021173911547 0.040256906054 -0.028658364984 
N 3.764557448799 7.968335379452 15.095624160762 -0.036136820304 -0.023694618453 0.048560437658 
N 6.274451475258 7.803669807419 15.410425589136 0.002248531265 0.038778582845 0.026490346023 
N 8.784543304185 7.968233006864 15.095684793704 0.0368604782 -0.021286881358 0.04812422932 
N 11.297062624682 7.966728586988 14.965091763791 0.026348666934 0.034960587143 -0.029102964874 
N 13.804389646809 7.967057151192 14.987710989828 0.022632598656 0.006184106174 -0.006218093919 
N -5.015660421695 10.141843078068 15.005178192586 0.031118415148 -0.010047496133 -0.00556316933 
N -2.511894465487 10.141739714443 15.0052180776 -0.031073706897 -0.009596675962 -0.005779320636 
N -0.013469657937 10.144103655518 14.942794599607 0.027081716607 -0.02028830957 -0.017407803781 
N 2.477520908508 10.147396332342 14.938966196663 -0.017235678625 -0.001940434686 0.003285336318 
N 7.672016831278 10.224317690478 15.410442800131 -0.032381728561 -0.021363434122 0.026465660274 
N 10.071596812061 10.147349908248 14.938992050619 0.01230376144 -0.000176677815 0.004566736425 
N 12.562484418801 10.144385108866 14.942740929644 -0.023822640298 -0.026113998626 -0.016903031302 
N -6.268782518635 12.318031452112 14.990708915282 0.044005915364 -0.012702059551 -0.015175407108 
N -3.763743785561 12.316145231828 15.015841578947 -0.001701782356 0.012837250609 -0.003718147394 
N -1.258567394838 12.317712358417 14.990458694377 -0.044409928027 -0.00969280509 -0.015662087483 
N 1.242907234765 12.322393783487 14.926446774269 0.004397973333 -0.002506305997 -0.014263755045 
N 3.74381814691 12.340686491813 14.938965842615 -0.006930478691 0.015912472764 0.003298866841 
N 6.274461807557 12.315610948775 15.095629014733 0.002428575592 0.04317403386 0.048545763638 
N 8.805300388708 12.340694762648 14.939235410481 0.003832831055 0.014510430044 0.004085446433 
N 11.306060499134 12.322742248465 14.926692780159 -0.00528392126 -0.006413672332 -0.01443930814 
N -7.523864743231 14.491064429105 14.990231720526 0.019872936958 0.045247237786 -0.017783151044 
N -5.016850841284 14.490198410507 15.009162847492 -0.023562868598 -0.029771769875 0.012181361625 
N -2.510819453962 14.489610611326 15.008756140685 0.023077931417 -0.013311812277 0.013026026652 
N -0.003776049789 14.49107691447 14.990456822365 -0.01376731047 0.043322626431 -0.015666723748 
N 2.501172451008 14.499594234431 14.942795007624 0.03115619145 -0.013342432464 -0.017424672172 
N 5.019533180279 14.492242772806 14.964923421922 -0.045435041912 -0.001803104861 -0.028652229312 
N 7.529393563746 14.492357314307 14.965480140597 0.040121700222 0.00811449058 -0.029445688489 
N 10.047512722999 14.499947298166 14.942750835618 -0.036016890307 -0.012602236381 -0.01960161443 
N -8.78167929306 16.663973851371 14.9975914006 0.007293479081 0.033576542789 -0.001553714486 
N -6.272982937753 16.661696104568 15.013984453922 0.003781017867 -0.002162187869 -0.006887111104 
N -3.764344798915 16.659604973925 15.009161749496 0.014027904043 0.035255789113 0.012169370307 
N -1.255006536705 16.661407600933 15.015842142979 -0.011962970409 -0.004946662153 -0.003739657576 
N 1.254008325255 16.664475530982 15.00521577356 -0.007222103922 0.031709806002 -0.005781767914 
N 3.765423862765 16.663313982782 14.987663532893 -0.019154455871 0.029746260971 -0.005512782228 
N 6.273672102349 16.664040369224 14.992241251445 0.018051416121 0.000110487647 -0.007744466319 
N 8.782710318152 16.664260552 14.985982255737 0.016891674202 0.016132977471 -0.008307635483 
B 1.254763336497 0.724449546766 14.999992062346 0.000663597344 -0.000370067361 0.007812697601 
B 3.764004526403 0.7226263079 15.003225856613 -0.002365541237 -0.00995497711 -0.019032882481 
B 6.274242911859 0.720406055286 14.998921794885 -0.002117324468 0.002115382134 -0.015517266256 
B 8.784746347603 0.722216998323 15.006540347883 0.007518436986 -0.007439804718 -0.016491147748 
B 11.295753823825 0.72549148525 15.009863056142 -0.037765059884 -0.021205190807 -0.009317475632 
B 13.804244547855 0.724838818215 15.002978320753 0.01621178892 0.019057849382 -0.00722599017 
B 16.312749888498 0.724696499798 15.002675668943 -0.013943196921 0.03726072792 -0.008443383875 
B 18.821218900948 0.725815996628 14.999521860582 -0.009360853779 -0.000975021619 -0.012278900872 
B -0.001380483629 2.897420489955 14.999521164601 -0.003818343131 0.00849821209 -0.012275898095 
B 2.504692446739 2.893106834265 14.976026365039 0.00257394912 -0.043683847011 -0.010453782545 
B 5.016821413269 2.88875965361 14.950564508522 0.019571720048 -0.006067717531 0.001764971737 
B 7.531444660495 2.888486332005 14.950732727391 -0.018036700442 -0.004903198591 0.002162769398 
B 10.043181414985 2.892319744088 14.97909876541 0.016726260346 -0.028158050066 -0.007108640862 
B 12.550185321926 2.898506698288 15.002887096827 -0.001121471905 -0.011380039164 -0.007784480368 
B 15.058293699427 2.898237027888 15.005380743515 -0.014984447088 -0.021054069617 0.010553365212 
B 17.565457300867 2.898565399109 15.005375445511 0.03358738773 -0.019467001952 0.007929921268 
B -1.254647368332 5.070374875821 15.002675428946 -0.039209939831 -0.006528895581 -0.008438881982 
B 1.252151872027 5.070968795069 14.978921162471 0.01233528969 -0.01848337999 -0.005864044815 
B 3.755121983678 5.053563379639 14.934947284784 -0.033716651856 -0.000163987933 0.017506983416 
B 6.274476135074 5.051837304316 14.928661946068 0.004170176105 0.01979424592 0.018735340639 
B 8.794061344448 5.053402387952 14.934567283984 0.020170844591 0.000651004354 0.017367616649 
B 11.296340296846 5.070600693615 14.978871866538 -0.002081548037 -0.021765100956 -0.004938041014 
B 13.803782671796 5.070368948704 15.002181545208 0.018997348417 -0.010944606004 -0.008358494755 
B 16.312160465233 5.069996667477 15.005381361517 0.010645990359 0.023473821875 0.010546233639 
B -2.509022345449 7.242732612691 15.002978638785 -0.008381928185 -0.023493075634 -0.007230690759 
B -0.000702795595 7.242358669321 14.9789406625 -0.022647031729 0.008681818019 -0.004160635508 
B 2.509342331671 7.243727687193 14.992797031139 0.004540202124 -0.005877596693 0.031039294604 
B 5.008483576689 7.195682103527 15.134001022457 -0.018108008335 -0.039798861845 0.02986804051 
B 7.540615268069 7.195897272012 15.133989334456 0.015196518139 -0.049407026986 0.028980644248 
B 10.039749039642 7.243537338137 14.992788754178 -0.004178648812 0.002442043043 0.029840010908 
B 12.549861461891 7.24176137705 14.978870333513 0.017850700629 0.012769073891 -0.004938742174 
B 15.05787245195 7.241947377671 15.002886961822 0.009245274689 0.006669510588 -0.007788630052 
B -3.763830653999 9.41482642544 15.009864265132 -0.000519623824 0.043238512528 -0.009323931885 
B -1.260844688006 9.416079455232 14.979113078375 -0.029126029832 0.009681305566 -0.007442088357 
B 1.23569722869 9.417358330278 14.934488648022 -0.021640697509 -0.014125050226 0.017080605296 
B 3.717362682778 9.431755244989 15.134085592377 -0.047051404304 0.007559315146 0.027732728782 
B 8.831444696179 9.431673941541 15.133996663433 0.050346965439 0.011559622845 0.028980706397 
B 11.313621270645 9.417401511777 14.934565546977 0.009464375723 -0.017847078931 0.017367898519 
B 13.80973221184 9.416171169813 14.979096779402 0.032667415637 -0.000437084312 -0.007107372213 
B -5.016497926693 11.591058321755 15.006539879893 0.010218975357 -0.002681894905 -0.016487081751 
B -2.510967693903 11.590959577759 15.006462611938 -0.011599435526 -0.002340813152 -0.016756129366 
B -0.008186184709 11.593102005989 14.950617929484 0.005122172418 0.009856301613 0.001655701719 
B 2.493974662397 11.600089361585 14.92852967916 0.012778648252 -0.007302266512 0.017973409985 
B 4.983504007097 11.624774612599 15.134087083384 -0.030062740072 0.036982416668 0.027725071848 
B 7.56556490679 11.62466915213 15.13400900245 0.025361604963 0.035574768939 0.029864056718 
B 10.055184119328 11.600208804409 14.928661802113 -0.015117791611 -0.013479878745 0.018739175511 
B 12.557183275329 11.593316160825 14.950731080424 -0.004809861599 0.018119482972 0.002165461968 
B -6.270181368105 13.76612561333 14.998923603924 -0.002824262369 0.000789137023 -0.015527223919 
B -3.763961908341 13.765330629618 15.010871214605 0.004457816993 -0.033007739358 0.012509405811 
B -1.257061769156 13.765753034785 14.998583416105 -0.012172565146 0.007009443701 -0.015058621817 
B 1.248945022576 13.77051892247 14.950617143463 -0.005927726097 -0.009346968798 0.001659400619 
B 3.755137697435 13.781157391113 14.934488188982 0.001374893957 0.025723396041 0.017088478534 
B 6.274380232238 13.764961283264 14.992798189162 0.007380921157 -0.000954874468 0.031030401215 
B 8.794010252061 13.78117038765 14.934944908767 -0.016772225963 0.029210419001 0.017515895577 
B 11.299634159253 13.770908865026 14.950563494509 0.015028972097 -0.013956314601 0.001767504794 
B -7.527224355782 15.938945763817 15.00322621961 0.007463700075 0.007019653736 -0.019031161101 
B -5.018260463718 15.93728264031 15.010643598688 -0.024235960879 0.013973579443 0.011768356906 
B -2.510146443747 15.937004212255 15.010870848607 0.030809110495 0.012630479113 0.012512636673 
B -0.000590537557 15.939063633115 15.00646070391 -0.003683872662 0.011233294262 -0.016747635321 
B 2.50797346627 15.943863616015 14.979112751394 -0.022963410469 0.020403350726 -0.007445726539 
B 5.020541453921 15.939407648866 14.978941361482 -0.018811625849 0.015315405588 -0.004172284009 
B 7.527448895863 15.940098178801 14.978921603503 0.022184507836 -0.001365939851 -0.005879134684 
B 10.03980326386 15.944302124735 14.976026452023 0.039080688425 0.019557421704 -0.01046138234 
128
Lattice="20.0763846187 0.0 0.0 -10.0381923094 17.38665923 0.0 0.0 0.0 30.0" Properties=species:S:1:pos:R:3:forces:R:3 pbc="T T T"
Ti 6.275511855951 9.417492980062 16.341288312625 -0.015653019749 -0.060166804058 0.052464013436 
N 4.878193584833 10.22207701512 15.415452750034 -0.028817653772 0.125415660314 -0.065251569124 
N -0.008314289244 1.451200235592 14.997919396753 0.418260378484 0.056456724896 0.0123691043 
N 2.517746739748 1.437251892031 14.998202111769 -0.564152756738 0.37220720124 -0.023450485785 
N 5.022367044647 1.450130566738 14.985429659948 -0.154504539368 -0.344945907162 0.041708193613 
N 7.529432074797 1.442214132725 14.991637654352 -0.032927557741 -0.013447690625 -0.02037362005 
N 10.034511939344 1.445234343248 15.005023974687 0.284672192328 0.113034241703 0.085690604293 
N 12.554663772656 1.453989778328 15.001729433005 -0.164884170693 -0.27665360366 0.152733543061 
N 15.067505874966 1.451809922602 15.005445840258 -0.548556656107 -0.11258923205 0.030185816564 
N 17.567319818023 1.44699017248 15.009303033483 0.018296618654 -0.137829232069 -0.137791887633 
N -1.256044194189 3.629553994948 15.004107923423 -0.048495711171 -0.348140465192 -0.004327491311 
N 1.25555385986 3.616605502515 14.98173422869 -0.193343709598 0.258633687273 0.067842845004 
N 3.758692877981 3.605434312665 14.937824537941 0.067533746004 0.180775574568 -0.008111518329 
N 6.275672478128 3.611184926228 14.925023320231 0.128149625502 -0.21050570368 -0.017637632233 
N 8.787679037464 3.605808254511 14.935053213834 0.235365304227 0.248165329492 0.115202335168 
N 11.295799429525 3.619259070782 14.993099615113 -0.087994501153 0.109694768048 0.068631296898 
N 13.80413690123 3.632235271799 15.00525133547 -0.151463194662 -0.56513618732 0.003008415207 
N 16.308250511781 3.62254856902 15.006482455524 0.197438862454 0.057541699368 -0.005104911522 
N -2.508926848909 5.7950339832 15.001643238967 -0.099360216784 -0.023083542185 0.04032730892 
N 0.001618058866 5.800977828255 14.985979831093 0.045439945374 -0.555354178901 0.05480756215 
N 2.508151497176 5.789801023511 14.964430432238 0.18810047244 0.05634400075 0.022115692683 
N 5.011665670466 5.768729330321 14.936722629024 -0.176671702501 -0.514026959576 -0.034373746935 
N 7.538924253033 5.766084640064 14.934018829868 0.123887529822 -0.148747030354 -0.008103710837 
N 10.046922020718 5.795857347899 14.965169306039 -0.308332639518 -0.145765997038 -0.011912519116 
N 12.551375782351 5.798306618884 14.990948133486 -0.066958879246 -0.044552544808 -0.123897503389 
N 15.060170558194 5.792461096389 15.010344699428 -0.182854088121 0.244273175835 -0.108013335341 
N -3.763681127007 7.969286340041 15.007908357737 -0.175830746721 -0.029355098699 0.022251608373 
N -1.262564481588 7.976234123298 14.983281383408 0.203641590052 -0.509104402651 0.02744650615 
N 1.254572150312 7.961060949271 14.968904830145 -0.408567662051 0.375279108177 -0.028878287262 
N 3.760686088758 7.967602323089 15.088837231407 0.139248808535 -0.086360092659 0.107033353759 
N 6.269935228122 7.801637717294 15.416170715524 0.307825650033 0.004072283203 -0.015399588259 
N 8.77461106631 7.968626153263 15.10228464704 0.697329625118 -0.019341593536 -0.098320222072 
N 11.30275055435 7.963075727673 14.970479575898 -0.632321196544 0.6074692753 -0.123558380654 
N 13.800439590833 7.964299083603 14.983083251034 0.21348187573 0.135265863469 -0.020187751799 
N -5.0144586665 10.135938987094 15.001794190078 -0.220934827323 0.344263843453 0.057521861771 
N -2.510816628359 10.140751435395 15.00604023643 -0.152260172121 0.392867967662 0.033522924499 
N -0.017374494462 10.146794302598 14.939586376218 0.338737023693 -0.210317579776 -0.012990070846 
N 2.476720081454 10.145028045559 14.936291080314 -0.096164165841 0.149935337439 -0.049542274092 
N 7.67465795186 10.227632420855 15.410421169902 -0.031633328306 -0.16208675513 0.030097829514 
N 10.071641766184 10.150827366358 14.944141823486 -0.19621581672 -0.309354986118 -0.017323858917 
N 12.561713337347 10.141368063594 14.941695288088 -0.194166117008 0.119453154377 0.04277080399 
N -6.264037904093 12.320432675142 14.996913611773 -0.128515361727 -0.156178812807 -0.067721130649 
N -3.763132487573 12.311415753088 15.010671819042 -0.008439201034 0.340675200193 0.046708109384 
N -1.26106183168 12.309400691484 14.993385846597 0.405442704335 0.628505866902 -0.034616705678 
N 1.251564088076 12.317190591611 14.92736435028 -0.46763093758 0.132518785879 -0.053844863743 
N 3.740150969086 12.342042397756 14.945530174084 0.410080776826 -0.0777049667 -0.004314370682 
N 6.274406727275 12.320445775173 15.101108069956 0.329105763688 -0.239896904261 0.035788995687 
N 8.807396674864 12.341521219607 14.939145939899 -0.051593828741 -0.110577712844 -0.028847406895 
N 11.31412980063 12.323113999391 14.924831603489 -0.590295004011 -0.100436599448 0.003952750954 
N -7.523317159869 14.494811192214 14.984467758702 -0.141587787964 -0.072520857767 -0.0619837795 
N -5.015143096859 14.485170825514 15.013769699056 -0.214354280107 0.210304682817 0.025969180057 
N -2.516270486754 14.487024633784 15.003536434826 0.164936094302 0.183899563041 0.078038770799 
N -0.007482647492 14.492479254606 14.984967764244 0.193476872699 -0.01379935918 0.029879223035 
N 2.50305515925 14.500158616018 14.94451114579 -0.33914121534 -0.126844900754 -0.010557170483 
N 5.01106185963 14.494341096965 14.966010544053 0.487730755201 -0.020628642838 -0.012393488229 
N 7.525911734213 14.48963846469 14.975639014778 0.056188329357 -0.083582469137 -0.201941121527 
N 10.049427804575 14.500148938752 14.940509171398 -0.416162317416 -0.021558497153 -0.065596117778 
N -8.778618135068 16.657245904993 15.001846200228 -0.073180504059 0.58711705289 -0.059780737766 
N -6.271234294852 16.660077642653 15.022361029912 -0.138239308535 -0.064327606195 -0.081477257578 
N -3.766120755867 16.659371553082 15.000523241037 -0.267019647512 0.043984373054 0.124558544144 
N -1.253462281071 16.658215194352 15.015983340004 -0.182962690721 0.111958661027 0.004059659013 
N 1.251192911029 16.661825998163 15.012107955066 0.361862206174 0.341294589235 0.01003468114 
N 3.770562610164 16.66865525625 14.985069896555 -0.223913773516 -0.280292862312 0.06537623449 
N 6.268135489947 16.670415379488 14.998703539025 0.572468490436 -0.481353140594 -0.100301767101 
N 8.786914072278 16.660972106274 14.98841458914 -0.181313538186 -0.000413840552 -0.098009656925 
B 1.249895731987 0.727569376592 15.000779398809 0.259320695057 -0.208147708677 0.01927385364 
B 3.766961414022 0.716977550671 15.003194989 0.148224813306 0.203879121699 0.000957541973 
B 6.269061894759 0.719173167054 15.001324732589 0.242188262925 0.132041926885 -0.111691244752 
B 8.785183777663 0.719753726597 15.002136443194 -0.158635062974 -0.057254730382 0.052799192426 
B 11.293366582965 0.733415637017 15.01851073991 0.091312134795 -0.379906476219 -0.132770367113 
B 13.808090295825 0.719319332525 15.007299069823 0.069271867321 0.483446614428 -0.119594292806 
B 16.308219844186 0.722466753816 14.9972739223 0.338470493347 0.268918046159 0.121816554718 
B 18.82509493163 0.723860382199 14.992713964341 -0.352772837544 -0.057869687891 0.108373836763 
B -0.003627010419 2.902963669409 15.002930243533 -0.063535579515 -0.083019743308 -0.100107145216 
B 2.500142324184 2.895384027819 14.972918485014 0.391048837992 -0.510279851811 -0.011211979578 
B 5.022382954644 2.891230849301 14.948609772329 -0.189663566375 -0.0079985081 -0.024611483901 
B 7.537461465611 2.890144145687 14.948998367634 -0.310996583073 -0.194074480926 -0.014625030748 
B 10.045011017108 2.892502246106 14.992155255765 -0.127657118053 -0.056335394966 -0.210090509594 
B 12.545544062121 2.896537133086 15.00802343142 0.380454136484 0.26212608701 -0.092930659564 
B 15.05724039579 2.898146205647 15.010822083804 -0.004696812399 0.167090230632 -0.056672716114 
B 17.564364352986 2.889940942596 15.000346319865 -0.002423789805 0.435858614232 0.106120967072 
B -1.252901982742 5.072971844087 14.999018916382 -0.066261925694 0.106721891082 -0.021372090511 
B 1.263477056255 5.07058193409 14.982289169407 -0.450378341002 -0.035165228422 -0.104545560838 
B 3.756646814857 5.051106047451 14.93202450697 0.042465415024 0.07175566811 0.009426474339 
B 6.27352589791 5.047211061301 14.923710324394 0.053509963144 0.372011515186 0.047977338375 
B 8.791362461016 5.05294957727 14.936621989817 0.178613750183 0.083391924809 -0.076182697509 
B 11.299150076926 5.072231538766 14.980476908841 0.065893926075 -0.055118107764 -0.002186872764 
B 13.804713923405 5.07064096163 14.991523113249 -0.044952857414 0.225878225468 0.166153586211 
B 16.305912721821 5.078525922557 15.00824296886 0.387836174093 -0.468961084711 -0.009578344403 
B -2.517073550939 7.239389333064 15.004065810467 0.304999705115 0.329513110785 -0.071193244513 
B -0.006033246139 7.236072602103 14.977275312486 0.010264275083 0.580834418765 -0.01563802112 
B 2.505243359295 7.243672505337 14.995888665967 0.188029298092 -0.073701768399 -0.031724724717 
B 5.010285928888 7.188489550117 15.137211413514 -0.242099054394 0.371783441082 -0.011517227687 
B 7.545550082097 7.196176821295 15.127641586019 -0.553310481679 -0.051807559337 0.202352028151 
B 10.043129937452 7.245475869277 14.992878870699 -0.180908454565 -0.040339147259 0.099723210795 
B 12.541790031223 7.250078999007 14.968523621928 0.561925110421 -0.442371480682 0.141532210276 
B 15.062589755119 7.240665219979 14.996919623629 -0.255679281498 0.142692078177 0.070971956621 
B -3.768578687745 9.421980233437 15.013501046281 0.413958599203 -0.28130311823 -0.082674771256 
B -1.258365870567 9.419921957674 14.977059445585 -0.392633089085 -0.053969653713 -0.000191909133 
B 1.231592287334 9.421196739548 14.936148720628 0.093029082929 -0.365304642112 -0.014020425491 
B 3.71337867074 9.431938312807 15.126555293409 0.157662886417 -0.092349268248 0.136914332024 
B 8.829886270085 9.428205140744 15.132484489843 -0.02486082296 0.198155600508 0.121254336101 
B 11.306363214475 9.422932687213 14.935460985367 0.437173724595 -0.323219621712 0.055851551008 
B 13.807332184696 9.415597359454 14.986013590038 0.120941996823 -0.172031499796 -0.149291973457 
B -5.00846313121 11.588898856576 15.001459873729 -0.377140539186 -0.051729404738 0.046894675137 
B -2.510795031792 11.603690966616 15.010741365725 0.009840179602 -0.821827115728 -0.088125811849 
B -0.003316017418 11.5852020821 14.948622841533 -0.184494218782 0.369311306314 0.037292152752 
B 2.496304180841 11.600163411843 14.921912484193 0.149856805808 -0.163556963145 0.140057556194 
B 4.994186319958 11.628041343579 15.142022669912 -0.605783229906 -0.08593043707 -0.015761781513 
B 7.571341551501 11.622709231924 15.136758554504 -0.14156191366 0.198964431591 0.013002218669 
B 10.053743181234 11.593178094138 14.93246420928 0.273289767033 0.523924414021 -0.034772624634 
B 12.553592215627 11.592253480789 14.954594142572 0.495180842518 0.063590592145 -0.026798845743 
B -6.273691726339 13.771858413378 14.999006475978 0.165755917189 -0.324993312452 0.015372231905 
B -3.766192465748 13.762295795408 15.014583937733 0.048876670924 -0.092125939703 -0.069378450139 
B -1.256022124312 13.771553417903 14.994758419497 -0.231184048772 -0.411682955676 -0.003890816894 
B 1.242976138424 13.764958459527 14.952524506812 0.248131146872 0.177711458527 -0.031970873523 
B 3.750672253625 13.783271857465 14.938612785508 0.109921924153 -0.101320689519 0.002486704054 
B 6.276929733862 13.759177261453 14.990376161137 -0.519787938952 0.390009093093 0.139939699142 
B 8.784150479372 13.778511975041 14.927996378425 0.571363529057 0.199581717891 0.149876713083 
B 11.295905781785 13.771984935997 14.944316402066 0.244611163203 -0.032456950797 0.037692747587 
B -7.52798433285 15.937992414797 14.99557657797 0.136199259712 0.035951703473 0.131354032616 
B -5.026369135464 15.933478065434 15.015578256963 0.39718018621 -0.018629225823 -0.04463159986 
B -2.517336046936 15.941449643514 15.011015520578 0.294586096328 -0.268148091424 -0.062982758382 
B 0.002451156963 15.942461108748 15.010878023836 -0.166818384125 -0.166869290956 -0.070996024092 
B 2.512549250483 15.939149818978 14.979320429305 -0.174120396788 0.320794083837 0.016944851504 
B 5.025523259997 15.94616067207 14.986081352329 -0.280966921282 -0.281040528999 -0.085791167239 
B 7.52879531462 15.928453783464 14.97432878431 -0.103115377673 0.658637983112 0.165418028697 
B 10.045610696272 15.949860712085 14.978626616871 -0.106236825342 -0.398160542138 -0.034468363195 
128
Lattice="20.0763846187 0.0 0.0 -10.0381923094 17.38665923 0.0 0.0 0.0 30.0" Properties=species:S:1:pos:R:3:forces:R:3 pbc="T T T"
Ti 6.277163721576 9.417199270884 16.342360019253 -0.03618013329 -0.110287010697 0.064466641514 
N 4.880009537707 10.219617292309 15.420041729494 -0.095317170214 0.261192985857 -0.151833881676 
N -0.016350504009 1.453557653681 14.99585525144 0.833258747865 0.104966954533 0.016795656793 
N 2.526221014391 1.428258022799 14.998796549408 -1.077431585763 0.737969656135 -0.045749041567 
N 5.025042141638 1.45636319521 14.980657532501 -0.266617364253 -0.635626767328 0.100362762176 
N 7.529813369433 1.441176180579 14.99255275836 -0.094078781691 0.003775386071 -0.026092116231 
N 10.028997050678 1.444445248614 15.004928444486 0.535465863822 0.239532185164 0.175815286402 
N 12.558960569319 1.457948532325 14.994902505567 -0.307529782723 -0.527151278166 0.302731725458 
N 15.075746413291 1.453941126743 15.005082873332 -1.039586637014 -0.198144380707 0.059479253262 
N 17.568442579421 1.444198819654 15.013066228557 0.005523162419 -0.271710330532 -0.272028030554 
N -1.256345716808 3.636515130064 15.00276809348 -0.094486067519 -0.646767009887 -0.007096642016 
N 1.258332047264 3.611588017284 14.977533786207 -0.383392360229 0.52865563842 0.142343528215 
N 3.758037866872 3.602384504129 14.932890837719 0.140462340956 0.314280036748 0.003702207426 
N 6.277250560574 3.614946643152 14.923339970921 0.240693645813 -0.427313867262 -0.020181835315 
N 8.786613895113 3.603424924995 14.92744201249 0.457299781869 0.452245928026 0.245425830872 
N 11.296057574639 3.617093499681 14.998533956043 -0.174395263089 0.239426315726 0.141120128782 
N 13.803764182911 3.641303811675 15.005063081769 -0.264894967491 -1.067813563823 0.008721682893 
N 16.305044627278 3.622652046989 15.009266623197 0.358437737014 0.115847648915 -0.021696687627 
N -2.508558916465 5.796252186178 14.997484671577 -0.182949609498 -0.06575423548 0.078580261757 
N 0.004955925778 5.806772938843 14.979755573152 0.06273480122 -1.073028249927 0.116080794369 
N 2.509526773999 5.786484217563 14.963394025973 0.361949332483 0.160408096514 0.071938516112 
N 5.014954505499 5.77307984523 14.934186226677 -0.330954777719 -1.002317568884 -0.075377295649 
N 7.537038035925 5.768012313117 14.929042016003 0.235384386393 -0.278006876649 -0.019161754018 
N 10.051530307726 5.7985383772 14.965235972481 -0.573816818489 -0.241106354133 0.005895688145 
N 12.552098599614 5.802691354232 14.990026144244 -0.112468770139 -0.102046230589 -0.238162837867 
N 15.062469517444 5.7914646282 15.015173240962 -0.398451214588 0.457323442655 -0.21440078128 
N -3.763596706429 7.972330606196 15.007170354428 -0.341639554226 -0.076142015814 0.04388004003 
N -1.269806987547 7.984747547303 14.978918431074 0.424852281494 -0.989729973558 0.060310547677 
N 1.25678752681 7.955564800492 14.972866096974 -0.778565348045 0.688465758163 -0.029426307275 
N 3.756910648257 7.966809778818 15.082124030438 0.299981880038 -0.138284055049 0.16579860665 
N 6.265631022258 7.799608432303 15.421905234127 0.578355823937 -0.022309420501 -0.055295263089 
N 8.765159173919 7.969005976483 15.108816773906 1.320927352473 0.001766602998 -0.235009552946 
N 11.308002918656 7.959841314831 14.975782276593 -1.289603308597 1.151814918775 -0.206822741028 
N 13.796636588777 7.96163419196 14.978441606197 0.394653561036 0.262408397142 -0.032496248365 
N -5.013409099084 10.130272037318 14.998449810677 -0.47474187298 0.684754039143 0.116764544315 
N -2.509843673461 10.140033777796 15.006885487044 -0.268839527097 0.742148537017 0.073076151874 
N -0.021045996861 10.149340075438 14.936369204806 0.628218188366 -0.406794726126 -0.008803116828 
N 2.475853013098 10.142763039576 14.933581837483 -0.169992502714 0.28899197278 -0.100186075571 
N 7.67727728228 10.230835500103 15.410420272129 -0.037895708142 -0.302161404565 0.036704508204 
N 10.071551559864 10.154091729735 14.949279663063 -0.392522391796 -0.609405309889 -0.038569758093 
N 12.560808507356 10.138433301909 14.940679108585 -0.343442126187 0.259899564028 0.101552565089 
N -6.259381815509 12.322726316644 15.003071659537 -0.287732571207 -0.287987871865 -0.121506847562 
N -3.762527002807 12.30692094356 15.005534233345 -0.016412627742 0.651941903794 0.094244997805 
N -1.263276985146 12.301521961779 14.996289153597 0.841165674749 1.21377858166 -0.056666662778 
N 1.259898820541 12.312078683394 14.928244836032 -0.922174290112 0.270694597359 -0.091179148448 
N 3.736766269507 12.343344777751 14.952091533661 0.789836682467 -0.154572731113 -0.014328225915 
N 6.274578346765 12.325115352039 15.106611777915 0.626941374297 -0.516197068481 0.024549263929 
N 8.809457421353 12.342271506698 14.939036598196 -0.098810064612 -0.223530820054 -0.059889123111 
N 11.321792485901 12.323416566009 14.922973149616 -1.125403145431 -0.165282374041 0.022501649614 
N -7.522867107218 14.498508000372 14.978661100242 -0.28935057175 -0.193201929301 -0.105425939988 
N -5.013583007296 14.480288105876 15.018394439117 -0.398716527755 0.437580338977 0.039361930524 
N -2.521607905689 14.484565332812 14.998370484852 0.302207849523 0.360948852259 0.141880341236 