 128
 energy=-569.36866073158626 cutoff=4.00000000 nneightol=1.20000000 pbc="T T T" Lattice="20.07638462       0.00000000       0.00000000     -10.03819231      17.38665923       0.00000000       0.00000000       0.00000000      30.00000000" Properties=species:S:1:pos:R:3:Z:I:1:map_shift:I:3:n_neighb:I:1:force:R:3
 Ti              6.35535602      9.44752952     16.40517937      22      -1      -1      -1      20     -0.82361875     -0.70579402     -0.47296808
 N               4.84560118      9.97581952     15.47809680       7      -1      -1      -1      22     -2.88923280      3.54624340     -0.10008474
 N               0.13594778      1.16019023     15.15362700       7       0       0      -1      23      8.14100583      3.81458171      0.31425977
 N               2.43946357      1.79235275     14.90943546       7       0       0       0      22     -1.15462751     -2.26706404      1.01832233
 N               4.88553358      1.05853073     14.98475084       7       0       0       0      21      3.98077939      1.59252789     -0.48265555
 N               7.72268086      1.49955516     14.86193625       7       0       0       0      24      0.46615385     -2.00795515      1.31888574
 N              10.32982329      1.52941261     15.07655026       7      -1       0      -1      24     -3.91558407      4.19825149     -0.72089539
 N              12.29162739      1.65768689     15.31539352       7      -1       0      -1      23      0.81737566     -5.77844360     -1.55090810
 N              14.32931353      1.72207905     14.99798937       7      -1       0       0      22     -3.11561201      0.79755806     -1.55236444
 N              17.67326036      1.78447833     14.84033804       7      -1       0       0      24      0.08504245    -10.19150839      0.20552061
 N              -1.06632827      3.36954511     14.90012451       7       0       0       0      22     -3.83287781      0.82077129      1.67802940
 N               1.14615261      3.59054203     14.98136087       7       0       0       0      23     -7.27929410      6.66869414     -1.00302586
 N               3.81460158      3.58066085     14.82508170       7       0       0       0      23     -1.80163688      2.29539216      0.61821856
 N               6.10300719      3.49395416     14.75373475       7       0       0       0      23      5.82955179     -3.62164018      0.87400745
 N               8.73241295      3.60975605     15.02474452       7      -1       0      -1      23      3.69469370      0.75389798     -1.35117574
 N              11.27785809      3.68458098     15.07351006       7      -1       0      -1      23     -0.59799465      4.78595478     -0.33035472
 N              13.83943728      3.58458716     15.04503730       7      -1       0      -1      22     -1.29879814     -8.55559187     -0.21055676
 N              16.29017778      3.60881372     15.08673652       7      -1       0      -1      22      3.84153740      0.04812668      0.41761914
 N              -2.23236014      5.77648470     15.01241166       7       0       0      -1      22     -4.40214025     -0.77509449     -0.89452863
 N              -0.49305822      5.71987838     14.98972713       7       0       0       0      23      4.88769837     -2.03279644     -0.89691922
 N               2.28319983      5.78392489     14.91918150       7       0       0       0      24      2.18443160     -2.03413750     -0.70952808
 N               5.04252946      5.73494305     14.82120909       7       0       0       0      23     -3.97554305     -5.54262305     -0.49455085
 N               7.63631351      5.77466238     14.81626797       7      -1       0       0      23     -3.71121352     -2.48925977     -0.37689291
 N               9.96192642      5.73042144     15.11437545       7      -1       0      -1      22      1.88288784      1.22468733     -1.34090829
 N              12.38018431      5.55049141     14.83899733       7      -1       0       0      23      8.75921904      2.29864069      0.42439388
 N              14.92009985      5.79033855     14.90342035       7      -1       0       0      22      5.14052592      0.26201258      0.46382131
 N              -3.64972263      7.88363188     14.98089806       7       0       0       0      22     -2.40303551      2.80217658     -0.45497268
 N              -1.06636798      7.74713410     14.91711735       7       0       0       0      21      0.97993089     -7.89052246     -0.57038121
 N               1.55267591      7.93429900     14.96117589       7       0       0       0      23    -15.19898794      8.14355777     -0.58367369
 N               3.66724337      7.84396351     15.24056533       7       0       0      -1      21      6.65860406      1.16117540      0.34695701
 N               6.25821576      7.68928669     15.41410552       7      -1       0      -1      21      3.38992474     -0.04503963      0.79867407
 N               8.74903600      8.10559211     15.10569904       7      -1       0      -1      24      6.90568953     -4.50897779      0.87288040
 N              11.35149555      7.69393590     14.93165527       7      -1       0       0      23     -4.17227524      7.73390253      0.37211964
 N              13.70770308      8.23803281     14.84366614       7      -1       0       0      21      2.84685235     -2.26411444      0.07931795
 N              -5.04483725     10.25477337     15.02164046       7       0      -1      -1      24     -0.69672480      5.01398134      0.02757649
 N              -2.51740212      9.60919486     15.02411265       7       0      -1      -1      22     -0.95328527     -1.60711279      0.14362488
 N               0.01131832      9.90065002     14.92413347       7       0      -1       0      22     -1.40142497      4.95066720      0.67737983
 N               2.55829978     10.27135142     14.85151670       7       0      -1       0      22     -5.31564481      0.22544085      1.18167962
 N               7.78415556     10.28625176     15.57667241       7      -1      -1      -1      20     -0.81677716     -1.39989099     -0.03330334
 N              10.26644942     10.33739366     15.00796390       7      -1      -1      -1      22     -0.97982719     -6.59335657      0.55024272
 N              12.67663509     10.13524345     15.15358482       7      -1      -1      -1      22      1.97511087      1.33314162     -0.55163650
 N              -6.49096634     12.22647083     14.80658229       7       0      -1       0      21      5.28846784      2.26802602      2.06647078
 N              -3.81109839     12.44581693     15.04710052       7       0      -1      -1      22     -2.57316735     -0.28853983      0.76336863
 N              -1.43384257     12.41621882     14.82878149       7       0      -1       0      21      4.83463400      5.15284214      0.87082434
 N               1.09051790     12.53420295     14.82899064       7       0      -1       0      21     -3.19400908      0.56851875      0.74127583
 N               3.49477420     12.44710300     14.91261414       7      -1      -1       0      21      1.81052752     -1.82065721      1.56266248
 N               6.15310757     12.30557328     15.35438497       7      -1      -1      -1      21      1.17557113     -2.09746525     -1.11332367
 N               8.59111680     12.51959459     15.01732078       7      -1      -1      -1      21      1.01814907     -2.03071418     -0.48882507
 N              11.13183896     12.23115134     15.02165469       7      -1      -1      -1      22      1.46301387      1.34179707     -0.27671109
 N              -7.41131787     13.72072476     14.73680076       7       0      -1       0      24     -2.79167509     -1.38922522     -1.68285180
 N              -4.89519632     14.62922297     15.01496339       7       0      -1      -1      22     -3.20266504     -3.83706284      0.29937135
 N              -2.51586804     14.48653599     15.04216881       7       0      -1      -1      22      1.97242569      0.06738862     -1.08978969
 N               0.10433192     14.57650354     15.12137947       7       0      -1      -1      23     -0.05271818     -0.50058110     -0.98972835
 N               2.79116522     14.58993395     14.98301525       7      -1      -1       0      22     -7.17399094     -1.59635937     -0.84326091
 N               5.17961927     14.35515923     15.10918612       7      -1      -1      -1      22     -0.78887067      4.79310798     -0.55973124
 N               7.96252191     14.81163296     15.02968925       7      -1      -1      -1      22    -10.61166647     -4.85563493      1.39671216
 N              10.14243924     14.49383809     14.82935002       7      -1      -1       0      23      0.37988598      4.35515166     -0.93068214
 N              -9.00022132     16.58454921     14.93140711       7       0      -1       0      23      6.54531381      9.80770543      0.70349127
 N              -6.23818411     16.95418024     14.90830481       7       0      -1       0      23     -0.76315954     -5.98589526      1.91780029
 N              -3.25863863     16.60888696     15.17130684       7       0      -1      -1      23     -9.20757899      1.01883800      0.78310313
 N              -1.23316222     16.72981975     14.91417281       7       0      -1       0      23     -3.35021562      3.07009670     -0.80514447
 N               0.86555832     16.47255623     15.05628603       7      -1      -1      -1      23     13.10918113      6.50920087     -0.03980921
 N               3.73776394     16.72844784     15.02996466       7      -1      -1      -1      22     -2.70326598     -4.39171570     -0.04895650
 N               6.35952180     16.43807596     14.94605447       7      -1      -1       0      22      2.22616011      0.21268296      1.33802819
 N               8.74609007     17.05299300     14.97638802       7      -1      -1       0      21      4.58740194     -7.98981459     -1.20006673
 B               1.42930945      0.65731117     15.00457610       5       0       0      -1      22     -1.58698209      3.54778002     -1.09602160
 B               3.56095358      0.81496634     15.01901171       5       0       0      -1      22      0.01942408      8.39932187     -0.82535725
 B               6.30748997      0.51397574     14.87096727       5       0       0       0      22      2.37053842      2.94512120      1.80080127
 B               9.09129509      0.75329086     15.18047501       5       0       0      -1      24     -3.18070914      1.83036070     -3.38380840
 B              11.27701457      0.75410484     14.80751081       5      -1       0       0      24      2.28556172     -4.51828679      3.21039508
 B              13.44687124      0.70884487     14.97412971       5      -1       0       0      23     -0.72507545      4.48321022      2.27166464
 B              16.55949559      0.51244214     15.08847050       5      -1       0      -1      21      3.88222230      0.05868906     -1.55901289
 B              19.00669841      1.07964934     15.03026786       5      -1       0      -1      22    -10.08919877     -4.61051038     -1.54791192
 B               0.12820469      2.63439945     14.80992213       5       0       0       0      24     -2.56306078     -1.32006929      2.15712083
 B               2.33677911      3.46881505     14.95037919       5       0       0       0      24     10.67470630     -9.47328557     -0.86686811
 B               5.01459799      2.57700630     14.82743934       5       0       0       0      24     -4.64198605      1.66449583      0.46856225
 B               7.52872570      2.92629367     14.95382498       5       0       0       0      24     -1.21466086     -2.28803488     -1.45086868
 B              10.17087134      3.05939416     14.92309720       5      -1       0       0      24     -4.52474835     -4.00214666      1.72445674
 B              12.50778787      2.92976096     15.13940428       5      -1       0      -1      21      3.58168726      0.40977207     -0.79325793
 B              15.12031610      2.79835429     14.85407072       5      -1       0       0      24     -2.59991620      5.57534007      2.44807496
 B              17.60578059      2.87887485     15.35116351       5      -1       0      -1      22      0.71234984      9.97617945     -3.23623118
 B              -1.39299502      4.74626788     14.91354657       5       0       0       0      23     -0.34233398      4.47651354     -0.50752787
 B               1.03437631      5.17265959     14.77080874       5       0       0       0      23     -4.63268886     -1.14328596      2.81609040
 B               3.63225000      5.02009877     14.88614196       5       0       0       0      23      1.86690840      0.41921809     -0.75923597
 B               6.19451125      4.87161391     14.83726293       5       0       0       0      22      1.08883810      4.47827299     -0.58477405
 B               8.71539055      4.98216008     14.74683292       5      -1       0       0      24      3.78489475      1.42770567      3.28840462
 B              11.28535208      5.09850930     14.97488882       5      -1       0       0      23     -8.94581093     -4.36369066      1.33708604
 B              13.87077268      4.79152341     15.02773612       5      -1       0      -1      23     -2.95870497      8.76082654     -1.45081599
 B              16.41109901      5.27206095     14.87407593       5      -1       0       0      22      0.75097174     -4.01273258      2.21720996
 B              -2.40495635      7.18647864     14.88025796       5       0       0       0      22      4.26939425      1.56749571      1.44370599
 B               0.16030818      6.90822496     14.98449814       5       0       0       0      23      0.49412668      5.99852033     -0.63611329
 B               2.50494598      7.44211987     14.93368579       5       0       0       0      22      7.79109962    -12.08525589     -0.43780070
 B               5.06852120      7.04491103     15.01275085       5       0       0      -1      21     -3.51122885      4.84039187      2.51599976
 B               7.82352884      7.11494340     15.25005982       5      -1       0      -1      21     -7.37147255     -0.08074618     -1.45652860
 B              10.19636218      7.18632275     15.10938192       5      -1       0      -1      22     -7.96579668     -2.34804738     -0.56311448
 B              12.35803833      7.01476355     14.97037601       5      -1       0       0      23     11.47342672     -1.25227342     -1.17528474
 B              15.16711269      7.27820584     15.03027594       5      -1       0      -1      24     -5.36792584      1.91680326     -2.06391847
 B              -3.97714016      9.47860205     14.97336515       5       0      -1       0      23      7.75104567     -5.57989546      0.47440616
 B              -1.14325742      9.01435033     15.05494572       5       0      -1      -1      23     -4.45194512      6.35507786     -0.81991682
 B               1.30272830      9.62590195     14.74202076       5       0      -1       0      22      2.65054083     -5.89557159      1.91913166
 B               3.46133421      9.27748756     15.36122204       5       0      -1      -1      21      3.29044525      0.72824997     -2.41555888
 B               8.89010280      9.41414746     15.31478682       5      -1      -1      -1      21      3.83227338      6.22935926     -1.72413269
 B              11.60065451      9.59139872     15.06574462       5      -1      -1      -1      22     -7.94364455     -5.14652058     -0.99596036
 B              13.87723533      9.63881964     14.74072266       5      -1      -1       0      23     -2.32549820     -5.29583757      2.49090477
 B              -4.96718912     11.71711082     15.18130045       5       0      -1      -1      23     -7.98939979     -1.49337461     -3.30845336
 B              -2.64537473     11.89867838     14.83534644       5       0      -1       0      21      2.66956636     -3.33022741      0.73540549
 B              -0.21582064     11.61943914     14.98530920       5       0      -1       0      22      1.38747746     -0.32961028     -2.13842710
 B               2.17763129     11.76263982     15.05996177       5       0      -1      -1      22      7.33166754     -1.32879622     -2.39165147
 B               4.84425423     11.59614826     15.11873435       5      -1      -1      -1      21     -1.80775542      0.56448588      1.95860442
 B               7.41822622     11.59189824     15.20079393       5      -1      -1      -1      22      2.56444851      4.21452533      1.17160660
 B               9.96645439     11.62566200     14.85889927       5      -1      -1       0      24     -4.00617004      5.22018263      1.88517115
 B              12.28091638     11.54254971     14.82179472       5      -1      -1       0      21      5.00898123      2.79318055      2.34295722
 B              -6.21472013     13.73556370     15.01899758       5       0      -1      -1      23      4.30476837     -1.04801080     -0.73823452
 B              -3.72700906     13.79256708     14.98829693       5       0      -1       0      22     -0.59594390      4.96472287      0.52252903
 B              -1.14588057     13.98126924     15.05317274       5       0      -1      -1      22     -2.48755341     -4.68345649     -0.87149649
 B               1.38885653     13.99567274     14.81717456       5       0      -1       0      23     -0.35102204     -1.26667495      2.20937183
 B               3.81919985     13.83226031     15.02026462       5      -1      -1      -1      20      5.91479601     -3.60923833      0.05091541
 B               6.53089589     13.72732661     15.27451452       5      -1      -1      -1      22     -0.56699845      1.63206702     -2.35501263
 B               8.84516694     13.97886003     15.06073986       5      -1      -1      -1      22      5.34496485     -5.57077345     -1.31996187
 B              11.35976088     13.64628857     14.92606424       5      -1      -1       0      24     -3.03138726     -0.07064895     -0.04032762
 B              -7.66304268     16.53440592     15.27692909       5       0      -1      -1      24      4.73175617     -7.71172325     -2.60517457
 B              -4.99743101     16.00376601     15.03684356       5       0      -1      -1      23      1.83034968      2.05414725      0.09705844
 B              -2.36511289     15.87778775     14.84625488       5       0      -1       0      23      3.90547080     -2.18569001      0.30296576
 B              -0.21893805     16.01182686     14.93653898       5       0      -1       0      23      0.37057485     -6.51063258      0.60180404
 B               2.43804267     15.81286370     15.21016839       5      -1      -1      -1      21     -1.61109591      6.38496521     -2.14467518
 B               4.95770814     15.95485769     14.89882795       5      -1      -1       0      23      1.76252287     -3.66036992      2.34218357
 B               7.78903124     16.01732608     15.25935512       5      -1      -1      -1      21     -2.17248043      9.19761556     -2.81790654
 B               9.96601283     16.01089122     14.61295494       5      -1      -1       0      23     -7.86321315     -3.44133083      4.20128052
