 128
 energy=-547.74058937504924 cutoff=4.00000000 nneightol=1.20000000 pbc="T T T" Lattice="20.07638462       0.00000000       0.00000000     -10.03819231      17.38665923       0.00000000       0.00000000       0.00000000      30.00000000" Properties=species:S:1:pos:R:3:Z:I:1:map_shift:I:3:n_neighb:I:1:force:R:3
 Ti              6.32650239      9.42349091     16.37763929      22      -1      -1      -1      19     -0.37667593      0.73947733      0.01599378
 N               4.73056674     10.22626979     15.34211443       7      -1      -1      -1      21      5.18216621     -5.55823899      3.70504872
 N               0.34332110      1.26066212     15.01031511       7       0       0      -1      22    -10.19391800      1.55922517      1.43687816
 N               2.21736704      1.70762067     14.94811113       7       0       0       0      22      6.60231317     -2.42133973      0.16631258
 N               4.93773095      1.16947340     15.04103616       7       0       0      -1      22     -0.19308410      4.34222047     -2.35131162
 N               7.52988930      1.45277973     14.94270671       7       0       0       0      24      2.51636244      0.47862603     -0.37150541
 N              10.30544478      1.39693578     15.20201687       7      -1       0      -1      24     -3.11000799      1.34780265     -4.99777312
 N              12.38381081      1.42235720     15.29337656       7      -1       0      -1      22      1.86194867      4.92920185     -4.96085690
 N              14.72525549      1.56518511     15.07427138       7      -1       0      -1      23      0.45561964      1.08300695     -2.01904541
 N              17.54567663      1.75571953     14.74971411       7      -1       0       0      23      1.92816722     -3.24263243      6.39606784
 N              -1.26803377      3.42343546     14.94001003       7       0       0       0      23      4.74085738      2.52235254     -0.26307088
 N               1.21138704      3.70780941     15.08482371       7       0       0      -1      23      1.09283168     -4.93207867     -3.50805301
 N               3.83402963      3.63304209     14.86854668       7       0       0       0      23     -1.70921904     -1.83392511     -0.26001358
 N               6.21466230      3.44909345     14.85087549       7       0       0       0      23     -2.19471752      3.62078081     -0.59901281
 N               8.81411330      3.72881265     15.13953260       7      -1       0      -1      23     -0.94024043     -3.37438379     -5.74468089
 N              11.35799854      3.78245829     15.21849453       7      -1       0      -1      24     -0.42287800     -4.83061606     -4.30459859
 N              13.87860489      3.44295320     15.01757768       7      -1       0      -1      22     -2.11131855      6.69017389      0.39171227
 N              16.41816859      3.58536607     15.02718861       7      -1       0      -1      21     -6.80348989      0.85173139      0.40385170
 N              -2.48737161      5.90074363     15.03259387       7       0       0      -1      24      3.58768244     -2.90803521     -1.35488011
 N              -0.21784558      5.71294021     15.02442598       7       0       0      -1      22      0.04139631      3.03929217     -1.60618341
 N               2.48227799      5.89537482     15.04743878       7       0       0      -1      24     -1.17311065     -3.15895483     -2.61497197
 N               4.91180320      5.66142391     14.88988911       7       0       0       0      21      4.14416390      4.83264897     -0.52797991
 N               7.69913873      5.77256135     14.84880546       7      -1       0       0      24     -2.09072285      1.20344074      0.47350174
 N               9.91937733      5.74286584     15.04059059       7      -1       0      -1      22      2.56054430      2.36413388      0.38760269
 N              12.51040341      5.63207179     14.70409540       7      -1       0       0      23     -1.77773472      1.88807355      6.28256703
 N              14.98762734      5.91034247     14.81704539       7      -1       0       0      23     -1.15017541     -2.67014758      4.90464488
 N              -3.78723014      7.90144195     15.03883547       7       0       0      -1      24      2.06117687      0.21986486     -1.14503707
 N              -1.02529015      7.71542911     14.98291752       7       0       0       0      22     -5.70044461      7.49886481     -1.31893165
 N               1.13235832      8.12493946     15.02635384       7       0       0      -1      23      9.72397365     -5.89043724     -0.70978154
 N               3.84654408      7.99207584     15.18312582       7       0       0      -1      23     -5.25879587     -2.50252915     -1.50657555
 N               6.25449290      7.76878099     15.41902722       7      -1       0      -1      23     -0.96271089     -0.67844326      0.46336503
 N               8.99641849      7.94569101     14.96023303       7      -1       0       0      22     -7.54192886      2.91828634      4.35358356
 N              11.18672486      7.97992111     14.82796586       7      -1       0       0      24      3.94947661     -4.76487439      4.58093647
 N              13.89790294      8.15913761     14.86539650       7      -1       0       0      22     -4.60089920     -2.74230597      0.97071766
 N              -5.06570072     10.31323842     15.09123135       7       0      -1      -1      23     -0.04389936     -5.46223540     -3.35980771
 N              -2.60213277     10.06678867     15.10848371       7       0      -1      -1      24      3.30101962     -3.15942258     -2.73665275
 N               0.02593161      9.90138317     14.92066036       7       0      -1       0      22     -1.41639855      2.08467593     -0.34146367
 N               2.62894667     10.08818691     14.82120211       7       0      -1       0      23     -1.06560419      2.27703512      2.12714680
 N               7.46776486     10.15450255     15.51818210       7      -1      -1      -1      23      8.35278044      3.44252270     -0.53106257
 N              10.16537811     10.12379417     14.95160789       7      -1      -1       0      22     -0.00979505      4.40737350      1.25297180
 N              12.73461347     10.29762233     15.10650572       7      -1      -1      -1      23     -3.49554052     -5.15736746     -1.85120608
 N              -6.47738750     12.17723743     14.91514219       7       0      -1       0      22      2.83089520      2.01686364      0.09458416
 N              -3.76677141     12.38594707     15.04501433       7       0      -1      -1      23      0.03093705      0.02796353     -1.40561764
 N              -1.21679956     12.58440774     14.95819512       7       0      -1       0      22     -6.36584651     -8.56338397     -1.27627559
 N               0.97797443     12.56767856     14.83396983       7       0      -1       0      23      7.03589588     -3.28962037      1.06934144
 N               3.89516891     12.34221511     14.95053531       7      -1      -1       0      23     -7.73375912      2.63765356      0.15223639
 N               6.12147163     12.10678375     15.19287231       7      -1      -1      -1      22      1.05199813      5.18273122      1.58279133
 N               8.81805331     12.41614553     14.88933255       7      -1      -1       0      23     -2.98971409      0.68760753      2.46895633
 N              11.21699362     12.34074133     14.96289233       7      -1      -1       0      23      3.48203871     -3.09097712     -0.19734270
 N              -7.50115164     14.16588704     14.81553943       7       0      -1       0      21      1.31110540     -0.66526697      1.21086860
 N              -5.10197289     14.56996910     15.10708119       7       0      -1      -1      24      5.33589416     -1.33975932     -2.07893366
 N              -2.35839295     14.46832190     15.07864598       7       0      -1      -1      23     -7.31103763      0.04159463     -1.98766235
 N               0.07335164     14.35753536     15.03379164       7       0      -1      -1      24     -3.00523005      3.56560114     -0.35844948
 N               2.47520472     14.56117904     14.99514016       7      -1      -1       0      24      5.14358674      0.45696699     -0.35622466
 N               5.16160014     14.40540261     15.03220100       7      -1      -1      -1      21     -2.47240308     -0.74220762      0.31799991
 N               7.67215806     14.72748815     14.72532829       7      -1      -1       0      23      2.93392763     -0.71127464     10.04255186
 N              10.12774843     14.40644094     14.79124427       7      -1      -1       0      23     -0.42905892      1.54054646      2.58358521
 N              -8.95846644     16.87848917     14.92415747       7       0      -1       0      23      0.92252474     -9.50981912      1.74319073
 N              -6.23254647     16.73634577     14.94695436       7       0      -1       0      23     -0.77369172      3.61102615      1.82607679
 N              -3.56712063     16.64734042     15.16314541       7       0      -1      -1      22      2.45368589     -0.99893690     -4.15742159
 N              -1.42056996     16.71830387     15.00147667       7       0      -1      -1      24      4.83888673     -2.03956699     -0.89746668
 N               1.27638867     16.74434267     15.13110022       7      -1      -1      -1      23     -8.35373057     -5.08444247     -1.58611319
 N               3.57157161     16.53927194     15.11403178       7      -1      -1      -1      23      6.98156391      4.70391651     -3.41566639
 N               6.47161946     16.42141448     14.86915129       7      -1      -1       0      21     -3.75615767      3.91892538      3.88955444
 N               8.65742833     16.78343795     14.84055229       7      -1      -1       0      22      3.51431309      2.45614581      4.41656553
 B               1.41592039      0.70431068     15.03597129       5       0       0      -1      23     -0.73163385     -1.01662133     -0.15035429
 B               3.54412493      0.85400689     15.06076665       5       0       0      -1      21      5.80971159     -6.52633778     -0.99523180
 B               6.41288813      0.65410320     14.72459820       5       0       0       0      24     -3.97003321     -1.79317526      4.79161730
 B               8.85055044      0.84884979     15.22570380       5       0       0      -1      24      2.38797448     -3.07629372     -3.12727561
 B              11.45866416      0.57637619     14.74568988       5      -1       0       0      23     -5.11964492      5.67189397      4.30943834
 B              13.53791512      0.95060532     14.73754037       5      -1       0       0      21      2.66335097     -3.99299119      5.74036148
 B              16.54056063      0.68460263     15.30495095       5      -1       0      -1      22     -0.79922763     -2.20533534     -6.98075818
 B              18.85415719      0.78913611     15.23856674       5      -1       0      -1      23      2.44745351      2.75127970     -5.98638628
 B               0.16968165      2.60440045     14.74277933       5       0       0       0      23     -3.71577296      5.66869721      3.85067908
 B               2.67068909      2.92796762     14.92764318       5       0       0       0      23     -6.93373809      6.86242111      0.50288115
 B               4.90432520      2.73527639     14.82540301       5       0       0       0      21      4.96444387     -2.42518610      1.32765234
 B               7.41710178      2.86801297     14.88808085       5       0       0       0      23      3.50961426      0.98128134      1.42263237
 B               9.98607473      2.91357173     14.57434315       5      -1       0       0      23      2.30203029      0.80686327      9.87848388
 B              12.61512058      2.92220006     14.86699347       5      -1       0       0      23     -2.99810353     -0.51622383      5.28298088
 B              15.10646249      2.91705673     14.85011250       5      -1       0       0      22      0.78706647     -2.69753675      2.44621819
 B              17.57442072      3.15641541     15.28328085       5      -1       0      -1      22      0.40178900    -10.29620503     -2.32046797
 B              -1.36728467      4.95106694     14.92155594       5       0       0       0      22      0.29925419     -1.01906553      0.53210829
 B               0.88326436      5.02179476     14.68088049       5       0       0       0      23      8.88235592      2.04594866      3.61400038
 B               3.67526581      5.05076433     14.87388448       5       0       0       0      24     -0.37904618      0.04389688      0.55483907
 B               6.42186851      5.13145498     14.90402767       5       0       0       0      23     -3.98852466     -4.13583713     -0.93832554
 B               8.89818059      5.06195394     14.64281128       5      -1       0       0      21     -4.90261246     -1.67684202      3.92081574
 B              11.05067659      5.04992754     15.00239021       5      -1       0      -1      23      7.60224935      1.63191122     -0.60685471
 B              13.79999043      5.08506606     15.37509548       5      -1       0      -1      22      1.32272347     -3.13947043     -9.69413173
 B              16.58461284      4.89905309     14.94626498       5      -1       0       0      24     -4.71861660      7.87034143      0.04119292
 B              -2.34748174      7.34990042     14.80979092       5       0       0       0      23     -4.61296469     -3.44476342      2.95477686
 B               0.17646642      7.27166892     14.94254151       5       0       0       0      22     -2.79988957     -7.03500627      0.57240137
 B               2.58755802      7.19070024     14.84173365       5       0       0       0      22     -2.70711374      4.89650897      3.11845237
 B               4.93650307      7.26363103     14.94994773       5       0       0       0      20      2.75418015     -5.97511199      2.63592502
 B               7.47196349      7.13778756     15.43314257       5      -1       0      -1      22      4.06935238     -0.92024273     -5.95401081
 B               9.92638158      7.11672245     15.18748641       5      -1       0      -1      22      6.58407629      2.32192655     -2.90657336
 B              12.52326239      7.08069889     15.23483836       5      -1       0      -1      22     -3.68022427      1.62880375     -7.17694988
 B              14.91565601      7.30233786     15.17015642       5      -1       0      -1      24      5.65689667     -0.75640954     -4.06388687
 B              -3.83022483      9.25106891     14.84283518       5       0      -1       0      22     -2.00122089      5.72919261      3.67811704
 B              -1.27886863      9.26037580     14.97224055       5       0      -1       0      22      3.09081494     -1.80559828      0.87101460
 B               1.42257800      9.37015281     14.79308054       5       0      -1       0      23     -5.10937179      4.92010669      0.96847728
 B               3.80049133      9.37683642     15.34160364       5       0      -1      -1      23     -7.38543147     -0.51436880     -3.22318488
 B               8.94876599      9.55768609     15.36267859       5      -1      -1      -1      21     -1.50431593     -3.06225893     -3.16542427
 B              11.41781593      9.36084000     15.08683453       5      -1      -1      -1      22      0.55261877      4.05164476     -1.80333202
 B              13.84073363      9.56306120     14.58508299       5      -1      -1       0      22      1.31895454     -0.25126147      7.17992858
 B              -5.25996127     11.66693750     15.19909765       5       0      -1      -1      22      7.70405585     -0.97222022     -2.25440269
 B              -2.38647354     11.41818320     14.80926409       5       0      -1       0      24     -3.88117367      7.32702349      3.13598515
 B              -0.13027038     11.89756517     15.01606866       5       0      -1      -1      22      2.03245749    -10.02704540     -0.56807109
 B               2.32492159     11.58293150     15.21515706       5       0      -1      -1      21     -0.55237840      1.34777874     -5.50166194
 B               4.81917266     11.45044107     15.16544772       5      -1      -1      -1      22      4.96953224      6.49868844     -0.19687421
 B               7.40833734     11.76810755     15.16401346       5      -1      -1      -1      22      2.54729861     -3.57120385     -0.01908397
 B              10.05574537     11.72060652     14.82216595       5      -1      -1       0      22     -0.66269140     -4.14995080      1.68914193
 B              12.48845821     11.59048673     14.86669743       5      -1      -1       0      21     -6.06419138      0.12786512      0.99817838
 B              -6.21936192     13.51721781     15.07017117       5       0      -1      -1      22     -1.99749627      7.45887673     -1.26815793
 B              -3.73801770     13.93031549     14.83033580       5       0      -1       0      22     -0.42576234     -4.17590538      4.36806124
 B              -1.24587571     13.80130511     15.00128198       5       0      -1      -1      22      5.45199409      3.71819509      0.37505695
 B               1.34137522     13.90125770     14.83879954       5       0      -1       0      23     -1.98740948     -2.69780181      1.05091972
 B               3.89553062     13.73569375     14.97147771       5      -1      -1       0      23     -3.28330205      1.51614054      0.61344423
 B               6.39172361     13.93030856     15.38334445       5      -1      -1      -1      21     -1.54241971     -3.52173616     -5.60595367
 B               8.96232997     13.83841162     15.26916657       5      -1      -1      -1      22     -4.41800026      1.03556612     -6.73601857
 B              11.35824471     13.67877295     14.93256405       5      -1      -1       0      23     -1.21417805      1.13508810     -0.73665162
 B              -7.53620229     16.13065778     15.35086528       5       0      -1      -1      23     -1.11291166      3.04341257     -5.73601555
 B              -4.79494806     16.07673808     14.92216512       5       0      -1       0      23     -6.38622015     -0.81918784      2.71838273
 B              -2.37150448     15.76589154     14.78587288       5       0      -1       0      24     -3.34822587      5.74448393      3.42801975
 B              -0.10325989     15.77731886     14.89740442       5       0      -1       0      23     -0.34487488      8.76515590      2.04664105
 B               2.35890440     16.12163224     15.10516119       5      -1      -1      -1      21      3.77480251     -8.39759274     -0.02344113
 B               4.86233062     15.74235322     14.80187093       5      -1      -1       0      21      2.86151803      6.46674046      3.47605680
 B               7.63249679     16.14209331     15.44636207       5      -1      -1      -1      23     -0.52490138     -6.65464289     -7.75518112
 B               9.71581686     15.74841710     14.86526491       5      -1      -1       0      22      6.61925918      7.33656576     -1.60979601
