 96
 energy=384.30240360144438 cutoff=4.00000000 nneightol=1.20000000 pbc="T T T" Lattice="10.23499814       0.00000000       0.00000000       0.00000000      10.15257672       0.00000000       0.00000000       0.00000000      10.60624898" Properties=species:S:1:pos:R:3:Z:I:1:map_shift:I:3:n_neighb:I:1:force:R:3
 Hf              1.23922647      1.15031926      2.78008207      72       0       0       0      34     -1.10748724     -2.24359465     -0.84756139
 Hf              1.23886015      1.15005796      7.98421149      72       0       0      -1      34     -0.99957835     -1.88529041     -0.17284873
 Hf              6.26645406      1.15091647      2.77932770      72      -1       0       0      35      0.20607884     -1.93273514     -0.51535193
 Hf              6.26950596      1.14886358      7.98348300      72      -1       0      -1      36      0.21839222     -1.70213545      0.19177772
 Hf              3.79116780      8.81111579      2.42327168      72       0      -1       0      36     -0.26322218      1.70238148     -0.25418779
 Hf              3.79073724      8.80979431      7.62799800      72       0      -1      -1      35     -0.18673522      1.94065351      0.57622346
 Hf              8.81905823      8.80981949      2.42411380      72      -1      -1       0      34      1.02786584      1.91606115      0.21476730
 Hf              8.82084970      8.81071885      7.62659409      72      -1      -1      -1      34      1.09998103      2.22426376      0.82901669
 Hf              1.27751910      8.81036186      0.17778791      72       0      -1       0      33     -0.69401079      1.09554604     -0.67173969
 Hf              1.27617303      8.80950127      5.38220540      72       0      -1      -1      35     -1.28066617      1.57205412     -0.22525294
 Hf              6.30531576      8.81124676      0.17760213      72      -1      -1       0      33     -0.28251404      1.59199472     -1.25742379
 Hf              6.30587903      8.80905432      5.38076676      72      -1      -1      -1      36     -0.24554458      1.75115402     -0.43582215
 Hf              3.75310952      1.14994176      5.02511679      72       0       0       0      36      0.24316814     -1.71382260      0.44753267
 Hf              3.75350199      1.15118699     10.22937028      72       0       0      -1      33      0.27460370     -1.64681606      1.20870554
 Hf              8.78240388      1.15004167      5.02460459      72      -1       0       0      35      1.28377064     -1.54254247      0.17497284
 Hf              8.78268408      1.15010147     10.23063506      72      -1       0      -1      33      0.69605082     -1.11275075      0.68221068
 Hf              3.75319299      3.83139602      2.42408778      72       0       0       0      36      0.19005674      0.24604715     -0.38893259
 Hf              3.75264113      3.82971261      7.62834144      72       0       0      -1      35     -0.03941534      0.38257033      0.58229128
 Hf              8.78269993      3.82990871      2.42340095      72      -1       0       0      36      1.23389536      0.14816963     -0.42825181
 Hf              8.78320992      3.83078830      7.62671226      72      -1       0      -1      35      1.11831592      0.35018359      0.21060442
 Hf              1.27620699      6.13018818      2.77950553      72       0      -1       0      35     -1.11560079     -0.38496590     -0.20222622
 Hf              1.27658604      6.13160747      7.98294644      72       0      -1      -1      36     -1.22971667     -0.20614797      0.53173607
 Hf              6.30501688      6.13114397      2.77880739      72      -1      -1       0      35      0.07076563     -0.38077906     -0.50212694
 Hf              6.30620195      6.13128313      7.98340240      72      -1      -1      -1      36     -0.24184914     -0.22041313      0.36483445
 Hf              3.79082151      6.13156807      5.02582937      72       0      -1       0      36      0.07321790      0.05963185      0.04653330
 Hf              3.79110071      6.13055867     10.23054420      72       0      -1      -1      35     -0.01809927     -0.09478163      0.71008523
 Hf              8.82009044      6.13130876      5.02584404      72      -1      -1       0      36      1.56604279     -0.42070054      0.10927809
 Hf              8.81875286      6.13234409     10.22889838      72      -1      -1      -1      35      1.47618156     -0.47493179      1.02673927
 Hf              1.23898834      3.82867817      0.17854323      72       0       0       0      35     -1.47214906      0.45228755     -1.05441850
 Hf              1.23786068      3.82956218      5.38032304      72       0       0      -1      36     -1.57164266      0.35092778     -0.08756192
 Hf              6.26711913      3.82933369      0.17884823      72      -1       0       0      35     -0.00928874      0.07908034     -0.77276443
 Hf              6.26616845      3.82976934      5.38271411      72      -1       0      -1      36      0.01367246     -0.06727517     -0.03102599
 O               0.01871273      0.22302609      1.24377833       8       0       0       0      33     -0.50328893     -0.99027439     -0.82941541
 O               0.01298472      0.22357185      6.44153758       8       0       0      -1      33     -0.80459481     -0.68114078     -0.19458580
 O               5.04542484      0.22171288      1.23856313       8       0       0       0      33      0.09790226     -1.12564648     -1.10510324
 O               5.04535583      0.22464317      6.44474773       8       0       0      -1      34      0.10002440     -0.92076391     -0.18523439
 O               5.01233965      9.73643529      3.96163914       8       0      -1       0      34     -0.09470296      0.95870386      0.16680933
 O               5.01420057      9.73342518      9.16564741       8       0      -1      -1      33     -0.05515798      1.17013189      1.12056354
 O              10.04562070      9.73679430      3.96351837       8      -1      -1       0      33      0.81440781      0.64704715      0.24975136
 O              10.04406187      9.73690174      9.17029080       8      -1      -1      -1      33      0.50011804      0.97679741      0.77733329
 O               2.49951663      9.73305329      3.84182107       8       0      -1       0      33     -0.69813500      1.14433625      0.20175151
 O               2.50276534      9.73626027      9.04979598       8       0      -1      -1      34     -0.76657693      1.05513013      0.83842856
 O               7.52969938      9.73201748      3.83936134       8      -1      -1       0      33     -0.27368761      0.96138379      0.11926426
 O               7.52788417      9.72988140      9.04784967       8      -1      -1      -1      34     -0.32854470      0.89719767      0.55817734
 O               2.53516345      0.22212977      1.36225331       8       0       0       0      34      0.29152735     -0.86225477     -0.57664946
 O               2.52785450      0.22601822      6.56928088       8       0       0      -1      33      0.26906127     -0.94269668     -0.11751557
 O               7.55938403      0.22808075      1.36494127       8      -1       0       0      34      0.72673590     -1.07784780     -0.88657271
 O               7.56065472      0.22568319      6.56532819       8      -1       0      -1      33      0.69266170     -1.14808976     -0.16581896
 O               2.53481806      4.75475456      3.96244263       8       0       0       0      35     -0.07614557     -0.30904027      0.32306658
 O               2.53032991      4.75675638      9.16381822       8       0       0      -1      33     -0.00354710     -0.22371573      1.38897067
 O               7.56044016      4.75156186      3.96627449       8      -1       0       0      35      0.42253830     -0.11163971      0.21329640
 O               7.55616418      4.75302541      9.16414233       8      -1       0      -1      33      0.38666127     -0.04211048      1.41092711
 O               2.49776553      5.20630710      1.23731525       8       0      -1       0      33     -0.33577394      0.05278933     -1.32664870
 O               2.50107121      5.20584464      6.44529133       8       0      -1      -1      35     -0.43787967      0.16030630     -0.26040043
 O               7.52434328      5.20674929      1.24121879       8      -1      -1       0      33      0.05538934      0.18855068     -1.38508448
 O               7.52728473      5.20390013      6.45030359       8      -1      -1      -1      35      0.06085684      0.34888448     -0.39128922
 O               5.01579678      5.20561755      1.36037786       8       0      -1       0      35     -0.08400770      0.21083425     -0.94317144
 O               5.01648031      5.20150567      6.56791493       8       0      -1      -1      34     -0.10310896      0.16093419     -0.15894908
 O              10.04506379      5.20453305      1.36667405       8      -1      -1       0      34      1.06303000      0.37946772     -0.79562464
 O              10.04298918      5.20534907      6.56025573       8      -1      -1      -1      33      1.03765516      0.22262264     -0.06686119
 O               0.01626627      4.75264804      3.84251741       8       0       0       0      33     -0.98826462     -0.23345284      0.15040249
 O               0.01366132      4.75297224      9.05019478       8       0       0      -1      34     -1.09657730     -0.34311119      0.69509431
 O               5.04776395      4.75770999      3.84088611       8       0       0       0      34      0.02905302     -0.12282637      0.15049133
 O               5.04142726      4.75832624      9.04994555       8       0       0      -1      35      0.07885001     -0.27520755      0.91083752
 O               0.65158067      7.05914538      4.55914572       8       0      -1       0      29     -0.42870352      0.05043506      0.06581895
 O               0.64646663      7.06277613      9.76180037       8       0      -1      -1      29     -0.46392091      0.49476094      1.14264784
 O               5.67994705      7.05820574      4.55768393       8      -1      -1       0      29      0.08374429      0.17011086      0.14729991
 O               5.67571127      7.06051812      9.76264673       8      -1      -1      -1      29      0.05940297      0.56547455      1.16930068
 O               4.38107411      2.89769847      0.64408451       8       0       0       0      29      0.00876710     -0.48838347     -1.14081837
 O               4.37959602      2.90309056      5.85457431       8       0       0      -1      29     -0.10851182     -0.23339338     -0.21119285
 O               9.41223159      2.89607952      0.64862371       8      -1       0       0      29      0.44804165     -0.49101417     -1.18581003
 O               9.40787273      2.89780229      5.84727341       8      -1       0      -1      29      0.45421451     -0.02639483     -0.04013342
 O               1.86818206      2.89794689      1.95230072       8       0       0       0      29     -0.44829832     -0.20854327     -0.39939572
 O               1.86497069      2.90185903      7.16131599       8       0       0      -1      29     -0.28705284     -0.19793383     -0.13721535
 O               6.89315082      2.90016898      1.95422750       8      -1       0       0      29     -0.34211426     -0.13447783     -0.37774267
 O               6.89841315      2.90024248      7.15851646       8      -1       0      -1      29     -0.11608398     -0.12549700     -0.11062832
 O               3.16687373      7.06200679      3.24731896       8       0      -1       0      29      0.05650729      0.01940534      0.13371317
 O               3.16465242      7.06126481      8.45870945       8       0      -1      -1      29      0.30869165      0.17098220      0.28644109
 O               8.19066059      7.06012668      3.25091009       8      -1      -1       0      29      0.27932074      0.18188431      0.07728127
 O               8.19254680      7.06111186      8.45474247       8      -1      -1      -1      29      0.45412948      0.23172157      0.38942053
 O               3.16313149      7.87478000      0.64375905       8       0      -1       0      30     -0.16995376     -0.14905042     -0.72424347
 O               3.16463819      7.88062443      5.84817748       8       0      -1      -1      30     -0.08180466      0.41902277      0.27294759
 O               8.19899378      7.87907498      0.64812555       8      -1      -1       0      30     -0.22974370     -0.45953092     -0.90169720
 O               8.19388851      7.87798425      5.84857064       8      -1      -1      -1      30     -0.04136334      0.20744625      0.27511606
 O               1.86565641      2.07844921      4.55509487       8       0       0       0      30      0.03188253     -0.12759112     -0.16615339
 O               1.86474063      2.08061685      9.76246545       8       0       0      -1      30      0.18118642      0.47794887      0.88461313
 O               6.89698260      2.08170191      4.55850562       8      -1       0       0      30      0.03082958     -0.45876844     -0.28774588
 O               6.89600926      2.08100281      9.75583260       8      -1       0      -1      30      0.16748752      0.20863104      0.84149125
 O               4.37758799      2.08530304      3.24972601       8       0       0       0      30      0.21636108     -0.52934945      0.50248261
 O               4.37664320      2.07911148      8.45247648       8       0       0      -1      29      0.07589189     -0.34717977      0.71090946
 O               9.40744923      2.07757903      3.24734255       8      -1       0       0      29      0.75083239     -0.47544141      0.47905336
 O               9.40808668      2.08082649      8.45351732       8      -1       0      -1      29      0.57583862     -0.31166183      0.76397586
 O               0.64995825      7.87551962      1.95751215       8       0      -1       0      29     -0.56805159      0.35472440     -0.80689960
 O               0.65158481      7.87941774      7.15622318       8       0      -1      -1      29     -0.75601044      0.51654654     -0.44335480
 O               5.68017284      7.88027632      1.95588708       8      -1      -1       0      29     -0.03513188      0.35533349     -0.73415624
 O               5.67418686      7.88357426      7.15414131       8      -1      -1      -1      30     -0.11740297      0.38115963     -0.42137852
