 128
 energy=-619.21816571180511 cutoff=4.00000000 nneightol=1.20000000 pbc="T T T" Lattice="20.07638462       0.00000000       0.00000000     -10.03819231      17.38665923       0.00000000       0.00000000       0.00000000      30.00000000" Properties=species:S:1:pos:R:3:Z:I:1:map_shift:I:3:n_neighb:I:1:force:R:3
 Ti              6.30221422      9.41478338     16.35989650      22      -1      -1      -1      19      0.07141668      0.62676548      0.18826539
 N               4.80929369     10.23323368     15.40006389       7      -1      -1      -1      21      3.31744098     -1.58026471      2.00219545
 N               0.11678695      1.40997104     14.98398810       7       0       0       0      24     -5.03757923      0.06786930      0.30875770
 N               2.40448205      1.53383827     14.98187518       7       0       0       0      23      6.00526589     -6.87222716      0.44077341
 N               5.00064054      1.35202929     14.98190855       7       0       0       0      24      1.05662287      4.25207078     -0.73770438
 N               7.50549477      1.42366149     14.98431091       7       0       0       0      24      2.71927300      2.02805028     -0.34556416
 N              10.11636049      1.43130893     15.08908263       7      -1       0      -1      24     -2.48401420     -0.06044615     -1.56842139
 N              12.50637213      1.42476286     15.07281859       7      -1       0      -1      23      1.67815370      3.35592856     -1.72729068
 N              14.95339515      1.49685480     15.03043255       7      -1       0      -1      24      4.98862349     -0.51205858     -0.28234308
 N              17.55280946      1.52177506     14.92372457       7      -1       0       0      24      1.85944706     -0.48273856      1.94152841
 N              -1.33065705      3.56340458     14.98118368       7       0       0       0      24      7.77866447      3.91530688     -0.46062646
 N               1.24757921      3.66618768     15.00057090       7       0       0      -1      24      0.15113474     -4.51852741     -1.02419136
 N               3.80661251      3.62242490     14.88382237       7       0       0       0      24     -2.82342959     -2.42754459     -0.06809956
 N               6.29404825      3.55187832     14.89363982       7       0       0       0      24     -2.09775155      2.46243135     -0.38069666
 N               8.81986634      3.66205348     14.97222700       7      -1       0       0      24     -2.57539270     -2.33781464     -1.48816110
 N              11.31530662      3.69392537     15.12266258       7      -1       0      -1      24     -0.66688355     -3.64137494     -1.82585450
 N              13.81584046      3.55692461     15.00583207       7      -1       0      -1      24      0.55534141      5.41859428      0.15312149
 N              16.37257163      3.63636240     15.02885702       7      -1       0      -1      24     -4.06695239     -2.49331989      0.24316360
 N              -2.52839485      5.85347570     14.98988185       7       0       0       0      24      2.38037114     -2.33735958     -0.37059242
 N              -0.03547640      5.75210499     14.96454641       7       0       0       0      24     -0.47604065      3.37842137     -0.60838121
 N               2.53607632      5.83023236     14.99583108       7       0       0       0      24     -2.36635447     -3.04769873     -1.06634911
 N               4.95723651      5.69475172     14.90190830       7       0       0       0      22      4.25928078      4.63820368      0.17063081
 N               7.58105018      5.75187743     14.86919012       7      -1       0       0      24      0.06060636      2.62874578      0.46885083
 N               9.98802593      5.75442733     14.98481110       7      -1       0       0      23      3.88131326      4.06109582      0.30682782
 N              12.55600500      5.76162466     14.86762846       7      -1       0       0      24     -2.22167058      1.31719849      1.80136750
 N              15.04353627      5.85889336     14.96040195       7      -1       0       0      24     -0.02232689     -3.07938685      1.34568506
 N              -3.79471308      7.97279273     15.01813094       7       0       0      -1      24      1.72376841     -0.69297431     -0.45695292
 N              -1.21415657      7.86791008     14.95893649       7       0       0       0      23     -0.79363439      6.66923281     -0.33800897
 N               1.14740501      8.05416802     15.01249652       7       0       0      -1      24      7.23737831     -7.31835439     -0.08106551
 N               3.81265736      7.96102781     15.08023320       7       0       0      -1      24     -4.52481511      0.82992924     -0.33909495
 N               6.27838137      7.76632903     15.45181520       7      -1       0      -1      24     -3.17904380      1.28950989      0.29491631
 N               8.89883631      7.92406453     15.08027662       7      -1       0      -1      22     -9.91252398      4.70533047      1.79831530
 N              11.24093682      8.03068735     14.94405843       7      -1       0       0      24      2.34847688     -6.06115457      1.13769029
 N              13.88780722      8.00914973     14.91352054       7      -1       0       0      23     -8.95968389      0.58653975      0.17422273
 N              -5.03576286     10.20285439     15.02141153       7       0      -1      -1      24     -0.12460708     -3.22512037     -0.91938650
 N              -2.55740963     10.20832391     15.05071128       7       0      -1      -1      24      1.97449281     -9.45202477     -0.52703434
 N               0.00590601     10.05524810     14.91125064       7       0      -1       0      24     -1.88604754      3.29816299      0.16135024
 N               2.50826456     10.11895532     14.86920089       7       0      -1       0      24      0.61813079     -0.08230380      0.95125434
 N               7.59094999     10.19832656     15.44803328       7      -1      -1      -1      24      3.88821562      1.98055557     -0.41235021
 N              10.07637009     10.11760335     14.97784095       7      -1      -1       0      24      1.52923102      3.28191498      0.12805475
 N              12.62257779     10.19884652     14.99563003       7      -1      -1       0      24     -2.93936130     -2.27192575     -0.63098673
 N              -6.31277753     12.24924280     15.01007138       7       0      -1      -1      24      0.39854523      4.09402391      0.13507603
 N              -3.75586388     12.32715819     14.99309454       7       0      -1       0      24     -0.67588995     -0.77056778     -0.25179825
 N              -1.20390609     12.46816333     15.00262282       7       0      -1      -1      23     -3.70997424    -10.69129959     -0.06611576
 N               1.14541389     12.36904660     14.89697832       7       0      -1       0      24      6.22318272     -0.25196898      0.50868581
 N               3.86219264     12.30930364     14.99753833       7      -1      -1       0      24     -9.07439869      4.00730629     -0.81232906
 N               6.26930294     12.23335580     15.16147155       7      -1      -1      -1      24     -2.88334042      4.55097046      0.53258133
 N               8.83649632     12.35451302     14.91065555       7      -1      -1       0      23     -1.49823236      0.76295286      1.02860585
 N              11.25642694     12.32425737     14.92523769       7      -1      -1       0      24      5.41849662      0.68512839     -0.09737523
 N              -7.53181983     14.39769343     14.87793863       7       0      -1       0      23      1.29315897      2.61377393      1.38730530
 N              -5.06919653     14.50398714     15.08308841       7       0      -1      -1      24      2.62744948     -1.31983530     -0.71978096
 N              -2.47724230     14.50379544     15.00288484       7       0      -1      -1      24     -1.46513486     -3.18650691     -0.72728728
 N               0.01986577     14.44043219     14.96772780       7       0      -1       0      24     -1.38008124      1.98838159     -0.21886724
 N               2.41681621     14.48618136     14.97044277       7      -1      -1       0      24      8.03361470      3.62899508      0.10856985
 N               5.09004205     14.47795444     14.99720367       7      -1      -1       0      24     -7.51792396      0.87690706     -0.19818335
 N               7.54683859     14.54350861     14.92516407       7      -1      -1       0      24      0.04642611     -0.51180121      2.50388248
 N              10.02500599     14.47126565     14.87085794       7      -1      -1       0      24      4.87975993      0.13541100      0.49389377
 N              -8.82549287     16.79112219     14.99709289       7       0      -1       0      24      0.95309465     -9.06255850      0.59168609
 N              -6.25527221     16.64663713     15.04638228       7       0      -1      -1      24      0.09139242      2.44732488      0.30445235
 N              -3.77522349     16.64599817     15.01251560       7       0      -1      -1      24      5.12947957      1.20077563     -1.15481242
 N              -1.33464258     16.67192107     15.01596242       7       0      -1      -1      24      3.48885897     -0.85486267     -0.31777335
 N               1.32111269     16.74352958     15.09821990       7      -1      -1      -1      24     -6.17850582     -6.55590031     -0.40643160
 N               3.69967817     16.61980020     15.02355076       7      -1      -1      -1      24      3.38053378      2.95013105     -1.02300927
 N               6.40685673     16.55916627     14.99152972       7      -1      -1       0      23    -10.58075666      6.68700232      0.63890125
 N               8.73337604     16.66613307     14.93855713       7      -1      -1       0      24      3.41889306      0.82276420      1.39246260
 B               1.30928531      0.69120049     15.02006885       5       0       0      -1      24     -2.51101253      3.58254808     -0.25394132
 B               3.73761659      0.77816972     15.02663360       5       0       0      -1      23     -1.24261365     -3.31614975     -0.29034093
 B               6.34849659      0.73337755     14.90528249       5       0       0       0      24     -4.40277131     -2.89627385      1.16693738
 B               8.77291420      0.75473437     15.05463964       5       0       0      -1      24      1.92930804     -1.14365952     -0.29014779
 B              11.37407858      0.61853529     14.96858276       5      -1       0       0      24     -3.21507121      8.01528038      1.20158735
 B              13.75074535      0.84536835     14.91879986       5      -1       0       0      24      0.41151720     -5.19313941      1.70968106
 B              16.40794412      0.72294529     15.09454121       5      -1       0      -1      24     -3.54363340     -0.63117436     -1.72091893
 B              18.81891840      0.70060434     15.05846875       5      -1       0      -1      24      1.13799361      2.30862340     -1.68932902
 B               0.02718801      2.81736675     14.92182961       5       0       0       0      23      0.10765447      1.88982093      0.98074451
 B               2.58741691      2.77756828     14.93634603       5       0       0       0      24     -3.03907489     10.06025134      0.07462156
 B               4.95991068      2.87716416     14.88901246       5       0       0       0      23      3.90553015     -1.51942456      0.40462407
 B               7.48335763      2.86696875     14.90891806       5       0       0       0      24      2.77478421      1.11605277      0.62467368
 B               9.99296980      2.90509811     14.89138803       5      -1       0       0      24      3.73877532     -0.95260323      2.74867489
 B              12.61594302      2.93510140     14.96927912       5      -1       0       0      24     -4.67778547     -2.18635444      1.54505365
 B              15.03940887      2.94485309     14.98335663       5      -1       0       0      24      2.34006319     -2.25914931      0.57691712
 B              17.59899217      3.04191082     15.07036007       5      -1       0      -1      24     -3.13032834     -7.57046607     -0.93508280
 B              -1.26498384      5.06024320     14.94288096       5       0       0       0      24     -1.37343603      0.38338879      0.54481776
 B               1.11596649      5.02369619     14.88910556       5       0       0       0      24      5.29044972      2.20633968      1.20416196
 B               3.76946370      5.03712926     14.89011773       5       0       0       0      24     -2.03777574      0.30710331      0.32530215
 B               6.35421811      5.11401732     14.89046598       5       0       0       0      23     -3.34218473     -3.84890197     -0.24153742
 B               8.88355746      5.08526475     14.83925597       5      -1       0       0      22     -5.45709187     -2.22230488      0.96751372
 B              11.20737421      5.04971172     15.00206966       5      -1       0      -1      24      3.12632403      1.97198826     -0.29616892
 B              13.78627137      5.11631757     15.08877633       5      -1       0      -1      24      1.93038197     -1.86760444     -2.13916916
 B              16.41548218      4.94143712     15.00947502       5      -1       0      -1      24     -3.15176560      8.83221752     -0.24405840
 B              -2.43960628      7.32620125     14.93412713       5       0       0       0      24     -5.02489757     -4.22219356      0.80177109
 B               0.04880236      7.32113550     14.95212984       5       0       0       0      23     -2.78557979     -5.84918682      0.20242958
 B               2.52862882      7.18526555     14.95180435       5       0       0       0      23     -0.87223140      3.10437312      0.92578738
 B               4.94098513      7.25890832     15.09173108       5       0       0      -1      22      3.58560705     -5.29850040      0.43785544
 B               7.44951976      7.20485402     15.22410590       5      -1       0      -1      24      5.92587958     -2.48190910     -2.27125675
 B               9.91898128      7.24885559     15.07459425       5      -1       0      -1      24      8.73527773     -3.04432147     -1.41000462
 B              12.54763810      7.19671055     15.02142169       5      -1       0      -1      24     -0.86856433      2.15241609     -1.90191314
 B              14.93688079      7.30326451     15.02521999       5      -1       0      -1      24      8.34582931     -3.82647233     -0.50732093
 B              -3.75869669      9.33695271     14.96464420       5       0      -1       0      24     -2.54027801      4.90545448      0.96474579
 B              -1.31367029      9.39517814     14.95718489       5       0      -1       0      24      3.09838017     -0.06501849      0.35762713
 B               1.29352706      9.31175230     14.90329913       5       0      -1       0      23     -1.85395701      8.31728948     -0.27744484
 B               3.80622914      9.42189804     15.17403462       5       0      -1      -1      24     -6.83812793     -1.11291117     -1.79760926
 B               8.86512433      9.48452111     15.21196693       5      -1      -1      -1      23     -1.19549158     -2.15573971     -0.52535212
 B              11.32889498      9.36604369     14.99781104       5      -1      -1       0      24     -0.07687084      4.53506669     -0.41968773
 B              13.78082733      9.42577686     14.87074771       5      -1      -1       0      24      2.81574672      1.82770626      1.52643647
 B              -5.16221876     11.61619900     15.03756243       5       0      -1      -1      24      8.81195565     -1.78439013     -0.27668468
 B              -2.44393964     11.44281588     14.96609880       5       0      -1       0      24     -2.42452437     11.88731791      0.34808941
 B              -0.03384725     11.72330396     14.96341110       5       0      -1       0      24      0.55746167     -5.50195958     -0.43047831
 B               2.48356191     11.58044972     15.00103058       5       0      -1      -1      23     -1.06256803      0.16441410     -1.41144105
 B               4.88040784     11.56978845     15.19727151       5      -1      -1      -1      23      7.75544662      0.53134744      0.29705836
 B               7.52053255     11.69853151     15.16343782       5      -1      -1      -1      24      2.57404074     -2.82194515      0.02993307
 B              10.09917986     11.68015108     14.91409114       5      -1      -1       0      23     -3.36631237     -4.74662853      0.39690265
 B              12.62908936     11.60632986     14.94919957       5      -1      -1       0      24     -6.74314121     -1.81983923      0.13364630
 B              -6.25042582     13.65159191     15.03090918       5       0      -1      -1      23     -1.40420697      4.39517815     -0.55659670
 B              -3.76653202     13.81105247     14.95804709       5       0      -1       0      24     -0.17677745     -1.91977049      1.11724154
 B              -1.29215655     13.67786341     14.97015951       5       0      -1       0      24      2.15229636      9.90051052      0.03865689
 B               1.32296849     13.83274421     14.92595927       5       0      -1       0      23     -6.18659570     -4.10809347      0.09988643
 B               3.79266049     13.77002838     14.97406558       5      -1      -1       0      24     -1.56861060      0.17876092      0.10906351
 B               6.18934536     13.86052245     15.12243877       5      -1      -1      -1      23      9.79175671     -5.78449891     -1.05601011
 B               8.89961366     13.80788512     15.01936775       5      -1      -1      -1      23     -7.69846979     -1.82814440     -1.41666681
 B              11.32519247     13.74634055     14.90568592       5      -1      -1       0      24     -1.36641242      0.00703548     -0.33158878
 B              -7.51366401     16.00146366     15.09350626       5       0      -1      -1      24     -1.18060700     -1.81420932     -1.88457703
 B              -4.89909176     15.96813765     15.00596032       5       0      -1      -1      24     -6.79579176     -1.79104691      0.69539835
 B              -2.47963841     15.84620915     14.92126328       5       0      -1       0      24     -1.49951784      3.92825530      1.14708279
 B              -0.01768090     15.87789029     14.99181856       5       0      -1       0      24     -0.55888178      1.23696516      0.61262832
 B               2.43691089     16.05556524     15.02231534       5      -1      -1      -1      24      3.61733154     -5.60986962     -0.05639304
 B               4.96799392     15.84407338     14.96042470       5      -1      -1       0      24      1.72672408      5.17485251      0.53796036
 B               7.51501827     16.06347096     15.12624429       5      -1      -1      -1      24      4.83243667     -9.00165481     -1.93190784
 B               9.96069107     15.81880982     14.96255240       5      -1      -1       0      24      0.85082321      6.73116592     -0.28203745
