 128
 energy=-544.92596061342260 cutoff=4.00000000 nneightol=1.20000000 pbc="T T T" Lattice="20.07638462       0.00000000       0.00000000     -10.03819231      17.38665923       0.00000000       0.00000000       0.00000000      30.00000000" Properties=species:S:1:pos:R:3:Z:I:1:map_shift:I:3:n_neighb:I:1:force:R:3
 Ti              6.32312014      9.42170055     16.37504365      22      -1      -1      -1      19     -0.27572188      0.85511155      0.05430665
 N               4.72938974     10.23630011     15.34292536       7      -1      -1      -1      21      5.87581345     -5.37515594      3.77822903
 N               0.32901792      1.28004519     15.00439106       7       0       0      -1      23     -9.77049193      1.34618913      1.31119057
 N               2.23051588      1.69635309     14.95197399       7       0       0       0      22      6.24271068     -4.10098749      0.29628346
 N               4.94577280      1.18417263     15.03662996       7       0       0      -1      22     -0.02684259      5.07779230     -2.26536534
 N               7.51871102      1.44470418     14.94915668       7       0       0       0      24      3.22378555      1.17554937     -0.29863648
 N              10.28505318      1.40034450     15.19453450       7      -1       0      -1      24     -3.19879091      1.05595182     -4.86367797
 N              12.39580992      1.41158410     15.27014892       7      -1       0      -1      22      2.31933899      5.33596468     -4.66395160
 N              14.75137025      1.55395100     15.07064635       7      -1       0      -1      23      1.53645112      0.99599930     -1.75875661
 N              17.54194487      1.72644320     14.76371605       7      -1       0       0      23      2.12810622     -2.73722532      6.15791250
 N              -1.29757367      3.43464916     14.94838005       7       0       0       0      22      7.68960080      3.16554508     -0.86294248
 N               1.21591425      3.71488055     15.07810619       7       0       0      -1      23      0.77198831     -5.76533024     -3.17149996
 N               3.83786657      3.63776121     14.87103388       7       0       0       0      23     -2.87503956     -2.49432598     -0.20182426
 N               6.23268690      3.45647704     14.85821140       7       0       0       0      23     -2.92023969      3.62401041     -0.62535152
 N               8.81831154      3.72683183     15.12477391       7      -1       0      -1      23     -1.06678376     -3.63893787     -5.38139460
 N              11.35258768      3.78063322     15.21254565       7      -1       0      -1      24     -0.22760703     -5.12597791     -4.16836128
 N              13.87125175      3.44357132     15.01470626       7      -1       0      -1      22     -1.60147988      7.23910338      0.53572543
 N              16.42853689      3.59804758     15.02665422       7      -1       0      -1      21     -8.12034654     -0.84680055      0.37518046
 N              -2.50185465      5.90064930     15.02883273       7       0       0      -1      24      4.04989271     -3.09735890     -1.32624977
 N              -0.18950892      5.70952667     15.01818056       7       0       0      -1      22     -0.56436366      3.79341898     -1.35667900
 N               2.49276756      5.89363059     15.04437311       7       0       0      -1      23     -1.12310206     -3.39494193     -2.39534559
 N               4.90647685      5.65351895     14.89209421       7       0       0       0      21      5.03891705      5.62798394     -0.41592096
 N               7.68258912      5.76372575     14.85044457       7      -1       0       0      24     -1.11587231      2.05827866      0.56423122
 N               9.91829595      5.73252900     15.03050013       7      -1       0      -1      22      3.95319912      4.39808470      0.85908627
 N              12.52094009      5.64615059     14.71718854       7      -1       0       0      23     -1.80000449      2.07177834      5.95502181
 N              14.99855484      5.90918646     14.82928074       7      -1       0       0      23     -1.46440252     -2.75675107      4.70556395
 N              -3.79270100      7.91337513     15.03769552       7       0       0      -1      24      2.08805756     -0.37260660     -1.02785506
 N              -1.04506668      7.71862581     14.98125707       7       0       0       0      22     -4.88008547      8.42266627     -1.12336432
 N               1.11379101      8.13281018     15.02405221       7       0       0      -1      23     10.15209559     -7.14648477     -0.19051131
 N               3.85665013      7.98791156     15.17025950       7       0       0      -1      23     -6.48041187     -1.37252233     -1.18803579
 N               6.26509626      7.76592531     15.42291987       7      -1       0      -1      23     -2.26155167      0.29117149      0.38571649
 N               9.00666518      7.92944725     14.97130588       7      -1       0       0      22     -9.55456628      4.70282500      3.63909009
 N              11.18715638      8.00191245     14.83779056       7      -1       0       0      24      3.80733567     -5.93630067      4.09430523
 N              13.91666680      8.13754229     14.87182541       7      -1       0       0      22     -7.03974103     -1.51754639      0.60579366
 N              -5.05975871     10.30864339     15.08690550       7       0      -1      -1      23     -0.56734868     -5.65046052     -3.24217430
 N              -2.60209083     10.10611715     15.10293389       7       0      -1      -1      24      3.40948818     -5.61916822     -2.12484484
 N               0.02810546      9.91960130     14.91964054       7       0      -1       0      22     -1.93346124      1.65112417     -0.29094321
 N               2.61114877     10.09036179     14.82385497       7       0      -1       0      23     -0.27451524      1.75271874      2.21101141
 N               7.47035830     10.15339326     15.50930540       7      -1      -1      -1      23      7.94178298      3.62639826     -0.52798828
 N              10.15022246     10.11348702     14.95370429       7      -1      -1       0      23      0.52588901      4.56044123      1.08792642
 N              12.72620710     10.29205758     15.09368105       7      -1      -1      -1      23     -3.56580219     -4.77832776     -1.71690785
 N              -6.45731505     12.17756331     14.92903371       7       0      -1       0      22      2.39736939      3.32224622     -0.14450430
 N              -3.76415380     12.37737568     15.03990021       7       0      -1      -1      23     -0.21579297      0.19826468     -1.34339578
 N              -1.20315947     12.59673828     14.96609856       7       0      -1       0      22     -6.44362750    -11.53692273     -1.14374326
 N               0.98607061     12.54043602     14.84093814       7       0      -1       0      23      7.40892358     -1.73490965      1.02914741
 N               3.91322948     12.32511671     14.95866117       7      -1      -1       0      23     -9.41932324      4.48474950     -0.24270057
 N               6.14751910     12.11364095     15.18571253       7      -1      -1      -1      23     -0.77433847      5.22927954      1.50841136
 N               8.82654026     12.40430568     14.88787861       7      -1      -1       0      23     -3.05009597      1.18796574      2.44463329
 N              11.20815592     12.34004578     14.95763442       7      -1      -1       0      23      5.52489337     -2.17393958     -0.10680354
 N              -7.50836078     14.19789721     14.82073250       7       0      -1       0      21      1.37235649     -0.35154068      1.55588343
 N              -5.10764761     14.56474752     15.10721832       7       0      -1      -1      24      5.42826610     -1.77656160     -2.00308375
 N              -2.36587868     14.48152538     15.07096910       7       0      -1      -1      23     -6.25111495     -1.96144795     -1.79879431
 N               0.07164385     14.36317241     15.02539655       7       0      -1      -1      24     -3.10116345      3.17580864     -0.45553549
 N               2.44631280     14.54240195     14.99120299       7      -1      -1       0      24      7.58900171      2.17857654     -0.04065801
 N               5.16706197     14.41653222     15.02820129       7      -1      -1      -1      21     -4.77327042     -0.90893712     -0.06507439
 N               7.65180554     14.70288387     14.73802760       7      -1      -1       0      23      2.19075607     -0.71555092      9.33551990
 N              10.10359982     14.41485949     14.79991891       7      -1      -1       0      23      2.01591017      0.84763731      2.04501632
 N              -8.94213387     16.89067765     14.93177944       7       0      -1       0      23      1.16367777    -10.86048389      1.58153017
 N              -6.23423384     16.71560142     14.95834404       7       0      -1       0      23     -0.88645521      3.93985507      1.68900876
 N              -3.60837258     16.64503569     15.14803208       7       0      -1      -1      22      3.98951424     -0.09164824     -3.80597112
 N              -1.41808280     16.71572642     15.00493988       7       0      -1      -1      24      4.87743234     -2.15163299     -0.82599581
 N               1.30384599     16.76084793     15.12687170       7      -1      -1      -1      23     -9.75809417     -6.44359417     -0.82531516
 N               3.57750080     16.54219241     15.10688432       7      -1      -1      -1      23      6.69860532      4.46426235     -3.26710280
 N               6.48233342     16.42851712     14.88335398       7      -1      -1       0      22     -6.15900435      4.70470360      2.87602861
 N               8.65794456     16.76204473     14.84777066       7      -1      -1       0      22      4.40797001      2.48016495      3.99977920
 B               1.40425111      0.69505674     15.03394574       5       0       0      -1      23     -0.73426632      0.64011334     -0.07537407
 B               3.56737053      0.85927931     15.05828741       5       0       0      -1      21      4.61596576     -6.84175906     -0.96238080
 B               6.42014774      0.67544385     14.74104376       5       0       0       0      24     -5.15731460     -2.89470380      4.35932143
 B               8.83194522      0.84259652     15.20667948       5       0       0      -1      24      2.71020778     -3.01650366     -2.72648917
 B              11.45986987      0.55293711     14.77121739       5      -1       0       0      22     -5.22778797      8.51569161      3.35687299
 B              13.56538289      0.95017114     14.75148143       5      -1       0       0      21      2.02366976     -4.58687585      5.35209132
 B              16.52665148      0.69372021     15.28969462       5      -1       0      -1      22     -0.95400085     -1.93591110     -6.68083279
 B              18.84427091      0.76858467     15.22577561       5      -1       0      -1      23      2.20238785      2.90277073     -5.70726801
 B               0.15084903      2.62373574     14.76018514       5       0       0       0      23     -2.65051298      5.36639099      3.60895364
 B               2.67105826      2.87532824     14.92827231       5       0       0       0      23     -5.85850660      9.33323955      0.37508835
 B               4.89546263      2.76191201     14.83161857       5       0       0       0      21      5.89667499     -2.54431659      1.26424077
 B               7.41511080      2.86449564     14.88757804       5       0       0       0      23      4.03556092      1.12391946      1.42405278
 B               9.97864297      2.91341666     14.59839803       5      -1       0       0      23      2.50590356      0.28214388      9.42354772
 B              12.63018381      2.93000690     14.87067548       5      -1       0       0      23     -4.32163744     -1.34082644      4.92328968
 B              15.08894635      2.93054807     14.86419906       5      -1       0       0      22      1.98001063     -3.27580516      2.26685379
 B              17.59134676      3.17404414     15.25572953       5      -1       0      -1      22     -2.48631816    -12.06148326     -1.53613011
 B              -1.34889697      4.96727461     14.92272843       5       0       0       0      21     -0.66410098     -0.71522357      0.62522648
 B               0.88918992      5.01345351     14.70445543       5       0       0       0      23     10.03605796      2.91674824      2.92193679
 B               3.69513154      5.04827683     14.87482025       5       0       0       0      24     -1.45675523      0.11298995      0.54859487
 B               6.42478783      5.14218154     14.90396881       5       0       0       0      23     -4.44044264     -4.60513145     -0.86246647
 B               8.91805960      5.07400201     14.66448072       5      -1       0       0      21     -6.80327615     -2.56525799      3.20177187
 B              11.05633307      5.04210515     15.00388701       5      -1       0      -1      22      7.31768663      2.27513877     -0.61004928
 B              13.79293622      5.09588584     15.35391810       5      -1       0      -1      22      1.56280382     -2.72617640     -9.07515839
 B              16.57075179      4.87305317     14.95581305       5      -1       0       0      24     -4.31516456     10.19018422     -0.07729998
 B              -2.34340699      7.36193521     14.82181427       5       0       0       0      23     -5.42764624     -4.73161545      2.65340422
 B               0.16898303      7.30266505     14.94299490       5       0       0       0      22     -3.48034741     -8.37894704      0.45619436
 B               2.58313120      7.17725995     14.85131039       5       0       0       0      22     -2.13555191      4.95557144      2.80089208
 B               4.92409959      7.28405119     14.96597655       5       0       0       0      20      3.92690618     -7.16712686      2.15088216
 B               7.45164149      7.15605566     15.41662332       5      -1       0      -1      22      5.13091945     -2.16042897     -5.66466503
 B               9.89414641      7.14413921     15.17656420       5      -1       0      -1      22      9.28370023     -0.50426297     -2.42039526
 B              12.53573869      7.09280545     15.21948737       5      -1       0      -1      22     -3.78361732      1.53268761     -6.76499431
 B              14.89084633      7.31384589     15.15532931       5      -1       0      -1      23      8.05038832     -2.40233150     -3.30301767
 B              -3.81293536      9.24497251     14.85286680       5       0      -1       0      22     -2.32054617      6.45912714      3.36854594
 B              -1.29552233      9.28232031     14.96794307       5       0      -1       0      23      3.93096576     -1.57871767      0.89697150
 B               1.41334657      9.33374450     14.80863343       5       0      -1       0      23     -4.48820332      7.86617803      0.51882819
 B               3.82758682      9.38817149     15.32638132       5       0      -1      -1      23     -8.83366586     -1.24571150     -3.33337268
 B               8.94172107      9.55556019     15.34693669       5      -1      -1      -1      21     -1.69572469     -3.13917539     -2.79418807
 B              11.40536407      9.34563007     15.07708384       5      -1      -1      -1      22      0.18105885      5.08837875     -1.51476821
 B              13.82447106      9.53915805     14.61178999       5      -1      -1       0      22      2.11435933      1.02121293      6.64148507
 B              -5.27782230     11.66749620     15.17897400       5       0      -1      -1      22     10.09746597     -2.10754010     -1.67087762
 B              -2.38516746     11.38576476     14.82790848       5       0      -1       0      23     -3.86720987      9.96807476      2.36439944
 B              -0.12148888     11.89833359     15.00986287       5       0      -1      -1      22      2.14681624    -10.90339006     -0.46672573
 B               2.35127357     11.58162693     15.19627926       5       0      -1      -1      21     -1.03422383      0.89327379     -5.21156344
 B               4.80169644     11.45683699     15.16908878       5      -1      -1      -1      22      7.57570888      5.79405842      0.03122241
 B               7.41510548     11.76794293     15.16407203       5      -1      -1      -1      22      3.15509958     -3.69273693     -0.06064267
 B              10.07063180     11.73062691     14.83232023       5      -1      -1       0      22     -1.92052154     -5.14533065      1.43041307
 B              12.53557654     11.59738821     14.87703772       5      -1      -1       0      22     -8.65801763     -0.61249707      0.78624265
 B              -6.21807066     13.51587525     15.06750182       5       0      -1      -1      22     -2.14474061      7.65450812     -1.26163557
 B              -3.74118773     13.92257219     14.83934376       5       0      -1       0      23     -0.38701624     -3.98660996      4.14700695
 B              -1.26429100     13.75054318     14.99595938       5       0      -1       0      23      5.31604593      8.08330745      0.44076197
 B               1.36113721     13.90850471     14.85005682       5       0      -1       0      22     -5.68787822     -4.99116039      0.76541564
 B               3.88758422     13.73905890     14.97061750       5      -1      -1       0      23     -2.94749629      1.02510992      0.57141074
 B               6.33911184     13.93453463     15.35594179       5      -1      -1      -1      21      2.93274347     -4.21534054     -4.92586693
 B               8.97712397     13.83667101     15.24515247       5      -1      -1      -1      22     -6.53328318      0.17676101     -5.80045380
 B              11.35940713     13.68679353     14.93071811       5      -1      -1       0      22     -1.92970676      0.98696596     -0.79179573
 B              -7.53025666     16.10889292     15.32734171       5       0      -1      -1      23     -1.04378930      2.41731934     -5.62276005
 B              -4.78465704     16.06699890     14.92933551       5       0      -1       0      23     -8.10421335     -1.43407048      2.33277155
 B              -2.37932083     15.75913766     14.79826037       5       0      -1       0      24     -3.25804537      6.65930303      3.13021420
 B              -0.08897727     15.77645355     14.90665337       5       0      -1       0      23     -0.61850888      8.48072066      1.85998689
 B               2.35304220     16.13688442     15.09358607       5      -1      -1      -1      21      5.41070870     -9.21252891     -0.02562825
 B               4.87085016     15.73539655     14.81842117       5      -1      -1       0      21      3.01253410      7.68572862      3.00873809
 B               7.60473828     16.15984800     15.41213660       5      -1      -1      -1      22      1.28694474     -8.75976204     -6.20199090
 B               9.74464002     15.73485370     14.88125814       5      -1      -1       0      22      4.65246666      8.46440010     -1.28311101
