 128
 energy=-557.82893744464707 cutoff=4.00000000 nneightol=1.20000000 pbc="T T T" Lattice="20.07638462       0.00000000       0.00000000     -10.03819231      17.38665923       0.00000000       0.00000000       0.00000000      30.00000000" Properties=species:S:1:pos:R:3:Z:I:1:map_shift:I:3:n_neighb:I:1:force:R:3
 Ti              6.31270911      9.41741548     16.36734560      22      -1      -1      -1      19     -0.02737314      0.93172978      0.14396213
 N               4.75110418     10.24570652     15.36091184       7      -1      -1      -1      21      6.10604757     -3.53863178      3.50917157
 N               0.24719120      1.34316763     14.99162119       7       0       0       0      23     -7.93218354      0.55305157      0.83795534
 N               2.29620031      1.64061867     14.96513848       7       0       0       0      22      6.97740400     -8.73301167      0.61523128
 N               4.97057550      1.25040680     15.01446991       7       0       0      -1      23      0.90382354      5.87366205     -1.71030295
 N               7.49980371      1.42689096     14.96743918       7       0       0       0      24      4.14508413      2.48850294     -0.20520514
 N              10.21047948      1.41436528     15.15286319       7      -1       0      -1      24     -3.25067338      0.50823017     -3.63008780
 N              12.44232240      1.40181807     15.18219167       7      -1       0      -1      22      2.97761417      5.44801958     -3.49822208
 N              14.83889054      1.52413446     15.05332122       7      -1       0      -1      24      4.50472161      0.43193675     -0.87192992
 N              17.54005231      1.62868671     14.82993618       7      -1       0       0      23      2.44302923     -1.45206043      4.52122344
 N              -1.34899010      3.48355675     14.96887145       7       0       0       0      23     11.92770359      5.25695262     -1.45550661
 N               1.23176887      3.71075229     15.04585449       7       0       0      -1      24     -0.10693776     -6.77535560     -2.09860374
 N               3.83530120      3.64032790     14.87777596       7       0       0       0      24     -4.46761499     -3.45466966     -0.10792079
 N               6.27364747      3.49352732     14.87765157       7       0       0       0      24     -3.46261023      3.49527154     -0.56614240
 N               8.82568081      3.70551626     15.05968928       7      -1       0      -1      23     -2.17129832     -3.68049887     -3.63953622
 N              11.33541594      3.75351652     15.17801941       7      -1       0      -1      24     -0.48506337     -5.38845274     -3.43068603
 N              13.84406040      3.47640414     15.00852617       7      -1       0      -1      22     -0.09498692      7.93739871      0.60777399
 N              16.42481801      3.62865183     15.02661592       7      -1       0      -1      21     -8.14070950     -4.09060368      0.38016019
 N              -2.52787166      5.88718192     15.01231195       7       0       0      -1      24      4.28939697     -3.36149773     -0.97238819
 N              -0.10812542      5.71646743     14.99433489       7       0       0       0      23     -1.61488174      4.85332692     -0.95379573
 N               2.51947875      5.87371179     15.02580281       7       0       0      -1      23     -1.61720841     -3.91337112     -1.85935687
 N               4.91310772      5.65445141     14.89729445       7       0       0       0      21      6.27365644      6.56324769     -0.09243681
 N               7.63047486      5.74749635     14.85783137       7      -1       0       0      24      0.64446582      3.48480625      0.66333728
 N               9.93452931      5.72337876     15.00445357       7      -1       0      -1      22      6.41467690      6.90615933      1.12270515
 N              12.54492100      5.69726158     14.77964617       7      -1       0       0      23     -2.10010509      2.21688120      4.15955228
 N              15.02499297      5.89394980     14.88446304       7      -1       0       0      24     -1.37478265     -3.23142317      3.41021516
 N              -3.80039720      7.94649974     15.03029403       7       0       0      -1      24      2.20909825     -1.21574887     -0.77294857
 N              -1.12216714      7.76470657     14.97213907       7       0       0       0      22     -2.32872312      9.53821324     -0.64093806
 N               1.10031270      8.12351152     15.01728166       7       0       0      -1      23      9.93793638    -10.15205021      0.41080416
 N               3.85793697      7.97234772     15.12739364       7       0       0      -1      23     -7.89044598      0.87320026     -0.67667028
 N               6.28479702      7.76070467     15.43612973       7      -1       0      -1      23     -4.47921520      1.91596147      0.41025664
 N               8.99314593      7.90417353     15.01803474       7      -1       0      -1      22    -13.63032091      7.78402752      2.44339323
 N              11.20376641      8.04063716     14.88277747       7      -1       0       0      24      3.35720428     -8.20119695      2.62712146
 N              13.93792292      8.06988912     14.89270151       7      -1       0       0      22    -12.17594276      1.46140351     -0.09939570
 N              -5.04502763     10.27154634     15.06122471       7       0      -1      -1      23     -0.97039885     -5.28422701     -2.31606904
 N              -2.58830256     10.19335786     15.07919901       7       0      -1      -1      24      2.73090196    -12.48465745     -0.63902330
 N               0.02550967      9.98080111     14.91558678       7       0      -1       0      23     -2.91139360      2.04834886     -0.04261349
 N               2.55787864     10.10287917     14.84082466       7       0      -1       0      24      0.65987245      0.52490079      1.88674001
 N               7.50987871     10.16517853     15.48042461       7      -1      -1      -1      23      6.82701171      3.54899086     -0.58574712
 N              10.10824487     10.10158192     14.96400483       7      -1      -1       0      23      1.75426563      4.61918903      0.56105954
 N              12.68596704     10.25674612     15.04851817       7      -1      -1      -1      23     -3.83396390     -3.74140359     -1.25656375
 N              -6.38852661     12.19555663     14.96988091       7       0      -1       0      23      1.05015688      6.15368154     -0.12838182
 N              -3.75780116     12.35251606     15.01931278       7       0      -1      -1      24     -0.76355678     -0.02902703     -0.93018443
 N              -1.18781277     12.58000697     14.98572918       7       0      -1       0      23     -5.01497076    -16.15656190     -0.40736873
 N               1.04151170     12.45438327     14.86606257       7       0      -1       0      23      7.98661468      0.34619943      0.96669595
 N               3.92476206     12.29618876     14.98110075       7      -1      -1       0      23    -12.44198646      7.29204036     -1.05942249
 N               6.21885028     12.15621102     15.17015751       7      -1      -1      -1      24     -3.65252476      5.68715826      1.12353209
 N               8.83954684     12.37451108     14.89329865       7      -1      -1       0      23     -2.65021058      1.68690285      1.95807430
 N              11.20818672     12.33166396     14.94158241       7      -1      -1       0      23      8.19135604      0.32581852     -0.03456267
 N              -7.52431994     14.29373113     14.84337115       7       0      -1       0      22      1.30992188      1.38278627      2.00066831
 N              -5.10263641     14.54099331     15.09973472       7       0      -1      -1      24      4.69146768     -2.24922451     -1.50036342
 N              -2.41095965     14.50838411     15.04097883       7       0      -1      -1      23     -3.33273983     -5.57621179     -1.31096891
 N               0.05386265     14.39281528     14.99815825       7       0      -1       0      24     -2.68711420      2.97854662     -0.54748221
 N               2.39656232     14.49893785     14.97983383       7      -1      -1       0      23     11.96080616      5.33002038      0.37579207
 N               5.15773578     14.44687589     15.01491184       7      -1      -1      -1      23    -10.03126442      0.12031408     -0.84084603
 N               7.59785213     14.62591650     14.81216009       7      -1      -1       0      23      0.35813670     -0.92385586      6.33270155
 N              10.04507559     14.44252724     14.83290187       7      -1      -1       0      24      6.73715039      0.11944493      0.69558844
 N              -8.88800029     16.87951255     14.96079251       7       0      -1       0      23      1.38756628    -12.95126700      1.19168155
 N              -6.24286011     16.66973082     14.99900764       7       0      -1       0      24     -0.63967367      3.76466708      1.09920852
 N              -3.71211518     16.64013659     15.08814379       7       0      -1      -1      23      6.94845789      1.98609685     -2.54145987
 N              -1.39053001     16.69923737     15.01216786       7       0      -1      -1      24      4.66417826     -1.78416030     -0.54895784
 N               1.34389570     16.78014883     15.11229799       7      -1      -1      -1      24    -10.54601715     -9.50864432      0.22542991
 N               3.62175701     16.56888464     15.07257982       7      -1      -1      -1      23      5.54615944      3.97679276     -2.41521365
 N               6.48218445     16.47167399     14.93511749       7      -1      -1       0      21    -12.86134881      7.39802967      0.51596565
 N               8.67937178     16.70791469     14.88474378       7      -1      -1       0      23      5.50280629      2.06512921      2.71618127
 B               1.36429654      0.67638266     15.02752332       5       0       0      -1      23     -1.91314115      4.57368970     -0.11920972
 B               3.65451246      0.84002913     15.04570905       5       0       0      -1      21     -1.10552079     -5.20952966     -0.85774766
 B               6.41109258      0.72123796     14.81190904       5       0       0       0      24     -7.02631090     -4.43467445      2.80699095
 B               8.79118327      0.80820988     15.13652409       5       0       0      -1      23      2.88718063     -2.43756203     -1.45312258
 B              11.43573961      0.53613377     14.86298760       5      -1       0       0      22     -4.70864862     13.15530193      1.59998049
 B              13.65614193      0.92205819     14.82019467       5      -1       0       0      22      0.37380034     -6.24928408      3.75131306
 B              16.47785229      0.71223637     15.21026979       5      -1       0      -1      23     -2.66628811     -0.90718104     -4.57948420
 B              18.82551310      0.72273372     15.15841310       5      -1       0      -1      23      1.49114785      3.01007233     -4.12719695
 B               0.08588970      2.70769518     14.83074529       5       0       0       0      23      1.41927059      3.02666910      2.61862383
 B               2.64429990      2.77416220     14.93178347       5       0       0       0      23     -3.58570324     13.61862815      0.11274400
 B               4.90226417      2.82844084     14.85667556       5       0       0       0      22      6.59582167     -2.23638808      0.91894977
 B               7.43186107      2.86036493     14.89352863       5       0       0       0      23      4.50724804      1.37878367      1.20398065
 B               9.97107301      2.91275410     14.71834040       5      -1       0       0      24      3.75721602     -0.96793481      6.71185450
 B              12.64845327      2.94375366     14.90639966       5      -1       0       0      24     -6.67019333     -2.98467854      3.40585459
 B              15.05008271      2.95229777     14.91775820       5      -1       0       0      23      3.76967263     -3.79618099      1.51139221
 B              17.62051483      3.15893968     15.16650999       5      -1       0      -1      22     -7.31551123    -13.39519931     -0.75856157
 B              -1.29967451      5.01313941     14.92983063       5       0       0       0      22     -1.96092505      0.21062155      0.76843028
 B               0.96317012      5.00536202     14.78910231       5       0       0       0      22     10.53618030      3.51150755      1.85902551
 B               3.74397983      5.04160262     14.88051758       5       0       0       0      24     -3.12075333      0.28704486      0.49446093
 B               6.40871232      5.14854283     14.89950584       5       0       0       0      23     -4.93754903     -5.24081504     -0.57214561
 B               8.93644586      5.09410705     14.74453149       5      -1       0       0      22     -9.40114749     -3.83798288      1.77350984
 B              11.11045394      5.03277000     15.00513722       5      -1       0      -1      23      5.28656581      3.51071562     -0.55682554
 B              13.78098256      5.11477792     15.24505900       5      -1       0      -1      23      2.21588727     -2.12831019     -5.96124592
 B              16.50734191      4.85559033     14.98371759       5      -1       0       0      23     -3.42189239     13.52334404     -0.28712588
 B              -2.36350929      7.36903433     14.87097978       5       0       0       0      23     -7.29903051     -6.65006899      1.74034904
 B               0.12610001      7.34821944     14.94648320       5       0       0       0      22     -4.50318338     -9.39085920      0.25657787
 B               2.56012925      7.16320666     14.89392308       5       0       0       0      23     -0.97108132      4.57363734      1.90670379
 B               4.91104150      7.30427413     15.02415555       5       0       0      -1      21      5.66218634     -8.51289446      1.14634902
 B               7.42165799      7.19598012     15.33802476       5      -1       0      -1      23      7.49802673     -4.17390480     -4.47329448
 B               9.85450253      7.21571313     15.13227648       5      -1       0      -1      22     13.69692248     -5.37711958     -1.59961470
 B              12.55332178      7.13737243     15.13929876       5      -1       0      -1      23     -3.01517286      1.82927639     -4.75919903
 B              14.86657973      7.33017277     15.09590770       5      -1       0      -1      23     12.46188110     -5.84042111     -1.29249146
 B              -3.77438746      9.26287109     14.89972396       5       0      -1       0      22     -2.91838018      7.22151153      2.26342212
 B              -1.32275133      9.34097664     14.95973180       5       0      -1       0      23      4.69778544     -0.50048876      0.71878021
 B               1.36419314      9.27466889     14.85681712       5       0      -1       0      23     -2.53174090     12.70239072     -0.27496250
 B               3.85820598      9.41357981     15.26277306       5       0      -1      -1      23    -10.70824119     -2.31076413     -3.23052914
 B               8.91099483      9.53230426     15.28611749       5      -1      -1      -1      22     -1.96439466     -3.11637042     -1.66035258
 B              11.36809506      9.33007014     15.04072844       5      -1      -1      -1      23     -0.29019834      6.72122272     -0.78293713
 B              13.78915220      9.47447367     14.72464586       5      -1      -1       0      23      3.52205953      2.09730566      4.14444049
 B              -5.27124694     11.65501752     15.11120760       5       0      -1      -1      23     13.39890272     -3.57818847     -0.68153888
 B              -2.40135153     11.35181140     14.89394400       5       0      -1       0      23     -3.28013980     16.55804009      0.63102243
 B              -0.08391694     11.84340655     14.98874911       5       0      -1       0      21      1.56476140     -7.81379842     -0.54760343
 B               2.42363764     11.58099862     15.11327015       5       0      -1      -1      22     -1.64048315     -0.09559663     -3.70325107
 B               4.79666473     11.50294749     15.18103338       5      -1      -1      -1      22     11.65850596      2.45893450      0.60873031
 B               7.45360148     11.74753032     15.16390391       5      -1      -1      -1      22      3.61695640     -3.56767439     -0.04340282
 B              10.10129767     11.73065901     14.86967166       5      -1      -1       0      22     -4.34314844     -6.53418449      0.87311505
 B              12.62512460     11.61178690     14.91163113       5      -1      -1       0      24    -11.20025744     -2.73719928      0.35143283
 B              -6.22589016     13.55409632     15.05308265       5       0      -1      -1      22     -2.14347143      7.74420954     -0.97404467
 B              -3.75268514     13.87919031     14.88727894       5       0      -1       0      23     -0.28833101     -3.10501170      2.88351695
 B              -1.29295432     13.65463303     14.98220347       5       0      -1       0      23      3.62722155     15.97660110      0.20451933
 B               1.38079395     13.89837773     14.88704374       5       0      -1       0      22    -10.20427445     -7.29602962      0.19631259
 B               3.84901937     13.75337189     14.97087764       5      -1      -1       0      23     -2.19400721      0.23410815      0.36929848
 B               6.21406262     13.92246333     15.25007775       5      -1      -1      -1      23     13.57267948     -6.49379491     -2.61341580
 B               8.97982458     13.82945964     15.14542906       5      -1      -1      -1      22    -10.93852165     -1.96491295     -3.20514593
 B              11.35131406     13.71530874     14.92094047       5      -1      -1       0      22     -2.33574075      0.26651416     -0.70247430
 B              -7.51772135     16.05402043     15.22771228       5       0      -1      -1      24     -1.03939147      0.34771406     -4.41147394
 B              -4.80162005     16.02799587     14.96202710       5       0      -1       0      23    -10.53994356     -2.79993750      1.37227849
 B              -2.41943498     15.77590469     14.85100775       5       0      -1       0      23     -2.52225111      6.91794239      2.18147712
 B              -0.04995984     15.81428855     14.94379832       5       0      -1       0      24     -0.87071938      2.62039083      1.38298814
 B               2.36812870     16.13220796     15.05855784       5      -1      -1      -1      22      7.12226158     -9.26123604     -0.17453613
 B               4.91170836     15.75781030     14.88254779       5      -1      -1       0      21      1.62446461      8.12338697      1.70240780
 B               7.53580126     16.16003230     15.28134166       5      -1      -1      -1      23      6.55353402    -12.58907166     -2.78888886
 B               9.84880078     15.74060506     14.92373435       5      -1      -1       0      22      0.72709593      9.33645573     -0.40389003
