 128
 energy=-554.90422327284750 cutoff=4.00000000 nneightol=1.20000000 pbc="T T T" Lattice="20.07638462       0.00000000       0.00000000     -10.03819231      17.38665923       0.00000000       0.00000000       0.00000000      30.00000000" Properties=species:S:1:pos:R:3:Z:I:1:map_shift:I:3:n_neighb:I:1:force:R:3
 Ti              6.34440202      9.43622650     16.39282062      22      -1      -1      -1      18     -1.02285344     -0.24506261     -0.43184502
 N               4.79017416     10.10132349     15.38586899       7      -1      -1      -1      21     -0.47904666      0.45248014      1.97341264
 N               0.28560678      1.17276352     15.06797253       7       0       0      -1      23     -4.68189437      3.21049666      1.21008541
 N               2.24693364      1.76195675     14.92556520       7       0       0       0      22      7.38533255     -0.60083088      0.15929848
 N               4.89050103      1.12049746     15.03404495       7       0       0      -1      22      1.58438812     -1.40242814     -1.74552999
 N               7.61865697      1.49445593     14.89907530       7       0       0       0      24      0.36618522     -1.63764241      0.23309628
 N              10.37744612      1.40705201     15.17769064       7      -1       0      -1      24     -4.97785966      4.72044847     -3.14266853
 N              12.32994873      1.54202642     15.35825549       7      -1       0      -1      23      0.44251940     -0.11668367     -4.55798086
 N              14.55450265      1.64609049     15.06358917       7      -1       0      -1      23     -2.36962642     -0.50473079     -2.29544821
 N              17.59236542      1.86908727     14.75416509       7      -1       0       0      24      1.41371681     -8.10217409      3.37369422
 N              -1.09142976      3.38177813     14.89881822       7       0       0       0      22     -7.54909287      1.08298087      1.89387919
 N               1.20139273      3.62075630     15.07075877       7       0       0      -1      24     -1.31661943      2.59034807     -3.21310794
 N               3.81302129      3.59393758     14.84872181       7       0       0       0      22      1.61144888      1.11730758     -0.24340636
 N               6.10237463      3.45295489     14.80032976       7       0       0       0      22      5.17600452      1.85334466      0.16776155
 N               8.77473234      3.69795919     15.14271958       7      -1       0      -1      23     -0.53010439     -2.47321764     -5.16889955
 N              11.37190217      3.73721062     15.19077166       7      -1       0      -1      23     -5.19915542     -0.35626474     -3.93634892
 N              13.88622887      3.51701161     15.03686820       7      -1       0      -1      22     -2.16048742      0.17851182     -0.46609242
 N              16.30791649      3.55128005     15.04044142       7      -1       0      -1      22      5.11951293      4.32684894      1.60963789
 N              -2.36083660      5.86295369     15.03633081       7       0       0      -1      23      0.16327191     -1.94076558     -1.07551440
 N              -0.37645975      5.75331611     15.03329830       7       0       0      -1      22      1.39026039     -3.75937651     -2.29265915
 N               2.40096118      5.86527708     15.02241001       7       0       0      -1      24     -1.84740815     -1.77318032     -3.50165245
 N               4.98171849      5.74729473     14.86672680       7       0       0       0      22     -0.49436720     -4.73224612     -0.94936584
 N               7.74446185      5.81869702     14.84124828       7      -1       0       0      22     -6.86886583     -4.37906786     -0.91889697
 N               9.93812378      5.78878046     15.09490065       7      -1       0      -1      21     -0.28155322     -5.72211105     -1.58638540
 N              12.42455951      5.57060226     14.71612834       7      -1       0       0      23      0.92406396      1.44177687      4.74719369
 N              14.91881091      5.87900386     14.81412108       7      -1       0       0      22      2.88555590     -2.62628272      3.95719997
 N              -3.72692559      7.84945162     15.02655233       7       0       0      -1      22      1.01905561      4.00659493     -1.48621957
 N              -0.99647285      7.77033763     14.97029425       7       0       0       0      21     -4.15936652     -3.66955370     -1.75169726
 N               1.36078819      8.01671711     15.01758843       7       0       0      -1      23     -0.82722310      0.74980148     -2.34539151
 N               3.73971391      7.96100461     15.23253752       7       0       0      -1      22      1.52109152     -4.12057944     -1.93147357
 N               6.20600826      7.75869263     15.40508145       7      -1       0      -1      23      4.70036953     -2.80729942      0.99023926
 N               8.86701341      8.05364465     14.96962069       7      -1       0       0      22      0.54519260     -2.36227348      5.70729543
 N              11.24208915      7.80714429     14.83988481       7      -1       0       0      24      2.88898592      2.31978195      3.51651011
 N              13.76659258      8.23619094     14.84420045       7      -1       0       0      21      3.71868574     -3.09582332      0.83168270
 N              -5.08558064     10.27709657     15.07256426       7       0      -1      -1      24      3.07080178      0.70483381     -1.19739979
 N              -2.56481446      9.82572393     15.09582432       7       0      -1      -1      21      0.05017940      1.46297448     -2.55585029
 N               0.00670953      9.83744577     14.92205759       7       0      -1       0      21      1.59471657      5.44376431     -0.01282567
 N               2.68985752     10.12256487     14.82922379       7       0      -1       0      22     -8.88104742      5.48463037      0.20761776
 N               7.56791444     10.20228285     15.56106864       7      -1      -1      -1      22      4.65069544      1.58702718     -1.28760652
 N              10.24301845     10.23821298     14.96011894       7      -1      -1       0      23     -2.61659798     -0.33258454      1.71019199
 N              12.73476290     10.25635167     15.15422975       7      -1      -1      -1      22     -2.84796686     -3.32002649     -2.12254789
 N              -6.54654997     12.18832224     14.84103198       7       0      -1       0      21      5.31784869      0.99209540      1.74781726
 N              -3.78165186     12.43146091     15.05599216       7       0      -1      -1      22     -0.55239364     -1.52644436     -0.90329007
 N              -1.36089649     12.45647575     14.89494850       7       0      -1       0      21      3.95603957      4.70079584     -0.03387913
 N               1.01175783     12.64556821     14.81049156       7       0      -1       0      21      1.61225448     -9.16028134      1.92193382
 N               3.71154195     12.44254965     14.91208993       7      -1      -1       0      21     -0.69819472     -4.80420727      1.67417705
 N               6.03002884     12.14435138     15.25909519       7      -1      -1      -1      22     10.67315615      5.88198299      1.42400919
 N               8.72823832     12.48637259     14.93237820       7      -1      -1       0      22     -1.84519047     -1.61462783      1.81208374
 N              11.26020351     12.29674790     14.99141714       7      -1      -1       0      24     -9.21682526     -0.54688643      0.19930829
 N              -7.44447995     13.95935515     14.79124314       7       0      -1       0      24     -0.90122034     -1.48890559     -1.44134959
 N              -5.00504192     14.59249183     15.07709908       7       0      -1      -1      23      0.22198256      1.46308794     -1.38667498
 N              -2.41532762     14.42393930     15.09141338       7       0      -1      -1      21     -1.35945733      5.15352323     -2.73317101
 N               0.05806180     14.39255889     15.08094740       7       0      -1      -1      23      3.74578595      7.03797509     -0.15244734
 N               2.67581769     14.64337192     15.00687088       7      -1      -1      -1      21     -3.69224002     -6.56949162     -1.59359951
 N               5.13261238     14.34381172     15.06488201       7      -1      -1      -1      22      3.94207354      3.30319521      0.55271480
 N               7.83880006     14.85047331     14.79697836       7      -1      -1       0      22     -1.86708269     -7.59636558      6.86347001
 N              10.21764355     14.39547372     14.78225475       7      -1      -1       0      23     -8.06309970      4.69352718      2.53396072
 N              -9.03997523     16.70788561     14.90609859       7       0      -1       0      23      5.58786339      2.62378444      1.85004281
 N              -6.23090778     16.88965712     14.90630990       7       0      -1       0      22     -0.36994692     -3.82082089      1.68964584
 N              -3.32727771     16.63607218     15.19398770       7       0      -1      -1      23     -7.58907074     -0.79960081     -2.26348693
 N              -1.36712145     16.71297328     14.96740240       7       0      -1       0      23      3.82014411      0.91623423     -0.75937476
 N               1.03715164     16.59816456     15.12125941       7      -1      -1      -1      23      2.78191707      0.54535901     -2.52625160
 N               3.62876329     16.59117744     15.10672636       7      -1      -1      -1      22      2.02527844      4.08099808     -3.06138564
 N               6.39080605     16.41984973     14.85272429       7      -1      -1       0      22      2.38295608      0.56703690      4.74021712
 N               8.68486909     16.94100480     14.86561531       7      -1      -1       0      22      0.67898115     -1.50548409      3.89955015
 B               1.46222074      0.71020669     15.03999710       5       0       0      -1      23     -2.77303189     -2.48082933     -1.37751786
 B               3.51073065      0.74779946     15.05560185       5       0       0      -1      21      2.58142386      6.21972309     -0.99706889
 B               6.33536012      0.53045106     14.72266632       5       0       0       0      23      2.00025706      3.93000915      4.96065673
 B               8.98928961      0.83063146     15.27142740       5       0       0      -1      25     -1.23445437     -2.08380991     -4.45033778
 B              11.37209342      0.74384204     14.69270040       5      -1       0       0      24     -0.11450003     -6.02134754      5.51772443
 B              13.43687918      0.88368695     14.76717847       5      -1       0       0      22      4.35375150     -4.39668944      5.84916664
 B              16.58372505      0.60471012     15.27297738       5      -1       0      -1      21     -3.06828246     -0.09536090     -4.80406434
 B              18.95764123      0.95681819     15.20344846       5      -1       0      -1      23     -0.78602765     -1.57256693     -4.38953705
 B               0.20498581      2.58562211     14.71521556       5       0       0       0      24     -3.50026918      2.01473839      4.00337476
 B               2.52843749      3.29164424     14.93566776       5       0       0       0      24     -2.31795094     -7.13212498      0.31520003
 B               5.00650669      2.56994194     14.81219142       5       0       0       0      23     -3.70455828      7.00045488      0.84711510
 B               7.47399316      2.90252426     14.91504075       5       0       0       0      23     -0.34069330     -0.21565735      0.46528004
 B              10.06926709      2.94777208     14.61703223       5      -1       0       0      24      0.53414248      3.67742694      8.73433549
 B              12.50973226      2.88914268     14.94545563       5      -1       0       0      22      3.81943816      2.78885361      3.89106607
 B              15.18715802      2.81215045     14.81314617       5      -1       0       0      23     -5.46642595      3.00732513      2.38231208
 B              17.53711153      2.93901843     15.38125138       5      -1       0      -1      22      3.32256769      5.77075949     -4.31923359
 B              -1.44126108      4.82843214     14.92083728       5       0       0       0      23      4.61277120      1.33816192     -0.29778840
 B               0.95360424      5.09177578     14.63087826       5       0       0       0      22      0.09870016      0.44799471      6.49639561
 B               3.57954608      5.06183397     14.87806168       5       0       0       0      23      5.76852818     -2.40404631      0.15382463
 B               6.34249080      5.00713105     14.88569561       5       0       0       0      23     -2.25085186     -0.53939796     -0.97133395
 B               8.74740320      4.98617898     14.60496808       5      -1       0       0      23      4.54229641      2.69443004      6.01551920
 B              11.14854300      5.10729005     14.98366071       5      -1       0       0      22      1.99831449     -2.04914149      0.21766001
 B              13.85649687      4.95327203     15.31811238       5      -1       0      -1      23     -1.42088511     -2.02548817     -7.70696625
 B              16.57057071      5.12883267     14.89399610       5      -1       0       0      21     -5.13797284     -3.68929753      0.95261317
 B              -2.42015514      7.24692737     14.79786568       5       0       0       0      24      3.32400551      1.82421657      3.06870543
 B               0.18701122      7.01615188     14.95369096       5       0       0       0      23     -1.51366180      5.94854249      0.77220646
 B               2.55072292      7.34782608     14.84856553       5       0       0       0      22     -1.80822152     -1.06982492      2.80818996
 B               5.03085781      7.08580293     14.91695686       5       0       0       0      21     -1.92454244      5.30864065      4.29930826
 B               7.64709496      7.05154831     15.41890548       5      -1       0      -1      20      0.44135142      5.80162440     -5.04938905
 B              10.16028587      7.06095052     15.19118620       5      -1       0      -1      21     -7.08668123      6.99587933     -2.86199743
 B              12.39506493      7.03818402     15.18989783       5      -1       0      -1      22      2.25589642      0.94893447     -5.81196645
 B              15.10457648      7.25350594     15.17080547       5      -1       0      -1      23     -4.69187278      2.61347955     -4.60467012
 B              -3.95466832      9.36620451     14.85630684       5       0      -1       0      22      3.08249061     -0.03631291      3.50670252
 B              -1.15745098      9.09993434     15.01112263       5       0      -1      -1      22     -3.77515414      2.15419121      0.13079870
 B               1.38462619      9.59458838     14.73013061       5       0      -1       0      23     -1.22961018     -7.25179065      2.52765227
 B               3.56887377      9.31649167     15.38067812       5       0      -1      -1      22      5.63430167      0.84684955     -1.48547935
 B               8.95870332      9.51425575     15.39105572       5      -1      -1      -1      21     -3.69835440     -2.85457756     -3.37346674
 B              11.51231835      9.49540497     15.10659101       5      -1      -1      -1      22      0.78229129     -1.31653518     -1.98429453
 B              13.93077828      9.67095284     14.56426668       5      -1      -1       0      23     -5.24090036     -4.35298043      6.42208505
 B              -5.07564714     11.67163346     15.26007444       5       0      -1      -1      22     -2.79152985      1.85305854     -4.73308308
 B              -2.46310239     11.68451839     14.76872843       5       0      -1       0      24     -3.76451797     -2.60953645      3.54041638
 B              -0.16034228     11.77255258     15.03425457       5       0      -1      -1      23     -1.42651995     -0.03854538     -2.26948015
 B               2.17933001     11.62888073     15.22184681       5       0      -1      -1      22      4.47450355      3.27877106     -5.51256179
 B               4.93115984     11.51509343     15.13801650       5      -1      -1      -1      22     -8.33480420     -0.70327254      0.11508638
 B               7.39776587     11.70736188     15.16727839       5      -1      -1      -1      21      0.47133531     -2.13160918      1.01891358
 B               9.98508892     11.62097960     14.80036432       5      -1      -1       0      22      2.50978338      3.69421774      2.67001448
 B              12.20527110     11.55928042     14.82638454       5      -1      -1       0      21     14.34132871      0.16930772      0.86109833
 B              -6.25127242     13.62957114     15.06216857       5       0      -1      -1      22      2.26390290     -1.64219919     -1.18021862
 B              -3.72592958     13.89809671     14.85776205       5       0      -1       0      21     -0.32848951     -2.96859905      3.36716362
 B              -1.08530207     14.05539368     15.03532309       5       0      -1      -1      22     -9.13725048    -11.93907303     -0.55446353
 B               1.27297126     13.87643025     14.79732558       5       0      -1       0      24      7.01864392      6.05056787      1.92669088
 B               3.87787223     13.75725596     14.98824087       5      -1      -1       0      22     -2.01265292      2.34438872      0.52167252
 B               6.59680696     13.85513331     15.43037561       5      -1      -1      -1      21    -10.42719504     -2.14497912     -6.67229066
 B               8.84510016     13.88722449     15.27022695       5      -1      -1      -1      23      3.98251726      2.41607162     -7.20476466
 B              11.34912797     13.65355257     14.93276826       5      -1      -1       0      23      1.35200373      0.48489272     -0.15623116
 B              -7.59187032     16.32358657     15.38762709       5       0      -1      -1      24     -0.86213643      1.25002543     -4.61440230
 B              -4.91953135     16.10948054     14.93706099       5       0      -1       0      23      2.52313778     -5.61235554      2.90978015
 B              -2.37687818     15.86769140     14.77806094       5       0      -1       0      23      0.51287172     -3.84566251      2.49019221
 B              -0.18047311     15.89803455     14.88528533       5       0      -1       0      23      1.64821491     -0.41985279      2.16597609
 B               2.41534732     15.92222669     15.17109985       5      -1      -1      -1      22     -1.82467333      3.77123895     -0.82456348
 B               4.86277143     15.86106206     14.77929083       5      -1      -1       0      23      3.11623820     -1.29494900      4.78371925
 B               7.75976095     15.97775681     15.47832762       5      -1      -1      -1      23     -3.18429200      6.81026035     -8.37013593
 B               9.72270794     15.90222484     14.73621565       5      -1      -1       0      23     10.10949726     -1.69684980     -0.25731208
