 128
 energy=-554.75058398552244 cutoff=4.00000000 nneightol=1.20000000 pbc="T T T" Lattice="20.07638462       0.00000000       0.00000000     -10.03819231      17.38665923       0.00000000       0.00000000       0.00000000      30.00000000" Properties=species:S:1:pos:R:3:Z:I:1:map_shift:I:3:n_neighb:I:1:force:R:3
 Ti              6.33610193      9.42963338     16.38540042      22      -1      -1      -1      18     -0.72042299      0.24729760     -0.18363663
 N               4.75306590     10.17422375     15.35455487       7      -1      -1      -1      20      2.35827626     -3.51960321      3.08623468
 N               0.34372402      1.20958017     15.03427323       7       0       0      -1      21     -9.81754832      2.28147921      1.61911217
 N               2.20696938      1.73477244     14.93692484       7       0       0       0      22      8.37181467      0.28614141     -0.06335730
 N               4.91299145      1.14078237     15.04448884       7       0       0      -1      22      0.33699582      1.34803924     -2.28132398
 N               7.57188195      1.47715324     14.92174148       7       0       0       0      24      0.63283982     -1.25155316     -0.31385619
 N              10.35334520      1.39334742     15.20389520       7      -1       0      -1      24     -3.80269737      2.73516567     -4.62081954
 N              12.35430737      1.47341556     15.34201755       7      -1       0      -1      22      0.79249644      2.91370978     -5.32146684
 N              14.64598871      1.60344679     15.07630333       7      -1       0      -1      22     -2.19740931      0.85197820     -2.41678675
 N              17.56434351      1.82860797     14.73412393       7      -1       0       0      24      1.47263983     -5.14037648      5.91461840
 N              -1.16852421      3.39872045     14.91550689       7       0       0       0      22     -4.02635556      1.13176049      1.34895170
 N               1.20295240      3.66904297     15.08980948       7       0       0      -1      24      1.35359278     -1.59948067     -3.98047916
 N               3.81902192      3.61328293     14.85983728       7       0       0       0      23      1.76010282      0.15976226     -0.41513011
 N               6.15437383      3.44160161     14.82657250       7       0       0       0      23      1.31643764      3.07876078     -0.33149906
 N               8.79759469      3.72163048     15.15954543       7      -1       0      -1      23     -1.08729376     -2.61048239     -6.03498026
 N              11.37151414      3.76935083     15.21831431       7      -1       0      -1      24     -1.95682810     -3.17517042     -4.47020111
 N              13.89091142      3.46685129     15.02737375       7      -1       0      -1      22     -2.85779864      4.37814196     -0.05467322
 N              16.36443691      3.55506888     15.03079672       7      -1       0      -1      21     -0.38834954      4.61480089      0.96684783
 N              -2.43037707      5.88946074     15.03831616       7       0       0      -1      24      2.05390660     -2.46221798     -1.24914480
 N              -0.30111267      5.73329583     15.03579711       7       0       0      -1      22      1.41443021      0.08969135     -2.30099036
 N               2.44592131      5.88804351     15.04515060       7       0       0      -1      24     -1.35321130     -2.50753691     -3.34663342
 N               4.94227839      5.70207411     14.88079884       7       0       0       0      21      1.36662149      0.87437915     -0.81775506
 N               7.73730072      5.80133821     14.84543004       7      -1       0       0      23     -5.10665018     -1.89131258     -0.10894205
 N               9.92968480      5.77731461     15.07095179       7      -1       0      -1      22     -0.58402389     -4.10974840     -1.12811370
 N              12.47155751      5.59706763     14.69108529       7      -1       0       0      23     -1.46567625      1.33004062      6.25393596
 N              14.95142875      5.90287777     14.80075110       7      -1       0       0      22      0.53114501     -2.64240925      4.84895762
 N              -3.76244245      7.86838148     15.03719231       7       0       0      -1      23      1.78839453      2.26779823     -1.47605361
 N              -0.99113247      7.73350022     14.98196570       7       0       0       0      21     -6.67096029      3.27346531     -1.76901057
 N               1.22638032      8.07991318     15.02873256       7       0       0      -1      23      6.92766670     -3.02115793     -2.30787518
 N               3.79812204      7.99133030     15.21463022       7       0       0      -1      22     -1.54890596     -5.06498157     -2.28781821
 N               6.22234947      7.77210642     15.40957527       7      -1       0      -1      23      2.66200219     -2.87860256      0.81772823
 N               8.93976568      8.00212224     14.94683107       7      -1       0       0      22     -2.41298502     -1.00853544      5.99353335
 N              11.20201793      7.89751908     14.81838250       7      -1       0       0      23      4.09988933     -1.28951230      5.19932243
 N              13.82874791      8.21029378     14.85079211       7      -1       0       0      22      1.42899063     -4.29341120      1.36848504
 N              -5.08176066     10.30566883     15.09047345       7       0      -1      -1      23      2.06532915     -3.58577806     -2.86409082
 N              -2.58939934      9.94180644     15.11263377       7       0      -1      -1      23      1.97828702      1.87788916     -3.52395703
 N               0.01519715      9.85705318     14.92226850       7       0      -1       0      21      0.40801983      4.04378831     -0.31482881
 N               2.67480356     10.09268782     14.82141832       7       0      -1       0      22     -4.95278964      4.12825813      1.24399526
 N               7.49495477     10.17119438     15.54241991       7      -1      -1      -1      23      7.72692330      2.35347816     -0.88609085
 N              10.20928513     10.17208165     14.95089099       7      -1      -1       0      22     -1.71152049      3.03290392      1.63028643
 N              12.74541829     10.29255304     15.13700030       7      -1      -1      -1      22     -3.51897835     -5.16135811     -2.16928411
 N              -6.52478932     12.18189661     14.87476489       7       0      -1       0      21      4.15348119      0.05778431      1.10558587
 N              -3.77421188     12.41109389     15.05453335       7       0      -1      -1      22      0.03793959     -0.77358724     -1.32770106
 N              -1.28179298     12.52073929     14.92929917       7       0      -1       0      22     -2.52597927      0.20502815     -0.91868891
 N               0.98084115     12.63104450     14.81773623       7       0      -1       0      21      4.55060946     -8.21328422      1.43935822
 N               3.81362994     12.39926910     14.92782120       7      -1      -1       0      22     -3.16699397     -2.43075858      1.17066443
 N               6.05348898     12.10789215     15.22098498       7      -1      -1      -1      22      7.40553421      5.71681787      1.62679103
 N               8.78064279     12.45312449     14.90380347       7      -1      -1       0      22     -2.43055537     -0.63702905      2.30196572
 N              11.25100628     12.32869570     14.97769939       7      -1      -1       0      24     -4.21692792     -3.49970930     -0.21497447
 N              -7.47452954     14.06646909     14.80379923       7       0      -1       0      22      0.61917542     -1.26568150     -0.13285617
 N              -5.06404247     14.58127611     15.09807310       7       0      -1      -1      23      3.53092681     -0.07775709     -1.96840739
 N              -2.36710739     14.43359354     15.09290664       7       0      -1      -1      22     -6.75764219      4.31828368     -2.57807972
 N               0.06728290     14.35722644     15.05776859       7       0      -1      -1      23     -0.70365864      5.83858240     -0.10680630
 N               2.57695056     14.61469888     15.00461384       7      -1      -1      -1      22     -0.70324966     -4.18832142     -1.20150067
 N               5.14033537     14.37051728     15.04621374       7      -1      -1      -1      21      2.44131204      1.34485847      0.80722507
 N               7.74689173     14.79773716     14.72981780       7      -1      -1       0      21      3.30474152     -2.54852803     10.42977294
 N              10.19198238     14.38970672     14.77691839       7      -1      -1       0      23     -6.58875820      3.71834500      3.28634499
 N              -9.00440747     16.80647721     14.90888273       7       0      -1       0      23      1.31735000     -4.50655029      2.04735534
 N              -6.23031488     16.81133437     14.92058153       7       0      -1       0      22     -0.43026691      0.64305196      1.99244591
 N              -3.43820724     16.64820246     15.19089901       7       0      -1      -1      22     -2.97997165     -2.33012593     -4.12996417
 N              -1.40815327     16.71837823     14.98728050       7       0      -1       0      23      4.70638877     -0.93166602     -0.93337007
 N               1.16480617     16.67726051     15.13536098       7      -1      -1      -1      23     -2.53660972     -1.89666862     -3.13521721
 N               3.58244375     16.55040783     15.12115969       7      -1      -1      -1      22      5.94180960      4.83859237     -3.52273678
 N               6.42920143     16.41436217     14.84463784       7      -1      -1       0      21      0.89152228      1.97552570      5.43712954
 N               8.66770933     16.85748583     14.83799261       7      -1      -1       0      22      0.90823632      1.75377870      5.00868018
 B               1.44606866      0.72188330     15.04075391       5       0       0      -1      23     -1.76976265     -4.00754822     -0.67486601
 B               3.50638498      0.80726316     15.06267513       5       0       0      -1      21      5.41324654     -1.85338492     -1.14554031
 B               6.37484376      0.58506001     14.70204556       5       0       0       0      23     -0.01256727      1.94984131      5.47100247
 B               8.91734598      0.85121278     15.26477149       5       0       0      -1      24      0.61500453     -2.90808013     -4.08461071
 B              11.42889890      0.66703261     14.69513015       5      -1       0       0      23     -3.50791808     -2.01254399      6.20591584
 B              13.47137656      0.93190921     14.72737715       5      -1       0       0      21      4.04267604     -3.54836681      6.30212801
 B              16.57450571      0.64746056     15.31382083       5      -1       0      -1      22     -3.32053665     -0.56011520     -6.23120829
 B              18.89740349      0.86486504     15.24450919       5      -1       0      -1      23      2.34997050      2.20169267     -5.97444386
 B               0.20448026      2.57638492     14.71189994       5       0       0       0      24     -4.35420111      4.79403705      4.32167584
 B               2.62957234      3.11330135     14.92886437       5       0       0       0      23     -8.06690626     -0.99913483      0.75156438
 B               4.95289371      2.64501144     14.81391541       5       0       0       0      21      0.62447043      1.93587601      1.24076359
 B               7.43953753      2.88328018     14.89701741       5       0       0       0      23      1.47714297      0.51508640      1.16614587
 B              10.02050709      2.92026915     14.55574611       5      -1       0       0      24      1.88560292      2.61461886     10.06339511
 B              12.55880264      2.89894882     14.88489363       5      -1       0       0      22      0.99640324      1.77786978      5.45050126
 B              15.15852942      2.86490444     14.82130651       5      -1       0       0      23     -3.04385660     -0.11171526      2.60373463
 B              17.53542792      3.05742144     15.35015096       5      -1       0      -1      22      5.59147156     -2.54265958     -4.67128751
 B              -1.41708851      4.89593877     14.92048844       5       0       0       0      23      3.32935642     -1.77541098      0.18424572
 B               0.90519443      5.05471229     14.63261089       5       0       0       0      23      3.13528294      0.40254773      5.93044218
 B               3.61723389      5.05828629     14.87404272       5       0       0       0      24      2.34678654     -0.25450367      0.50926044
 B               6.39343870      5.07909279     14.89899987       5       0       0       0      23     -2.73687610     -2.45302862     -1.04480021
 B               8.81963951      5.02022030     14.60128915       5      -1       0       0      22      0.97461997      1.04687618      5.75995413
 B              11.07413565      5.07977401     14.99472875       5      -1       0       0      22      6.62246804     -0.31381591     -0.46707207
 B              13.82725487      5.03429746     15.38571994       5      -1       0      -1      22      0.32372993     -4.03571287     -9.93642350
 B              16.59965020      5.01025702     14.91831017       5      -1       0       0      23     -5.59277420      0.69200553      0.44719510
 B              -2.38041148      7.29956750     14.79033293       5       0       0       0      23     -0.92439486     -0.18478899      3.42961060
 B               0.18643480      7.14755925     14.94467936       5       0       0       0      21     -0.83022006     -1.05660276      0.88824377
 B               2.58434671      7.25622388     14.83066912       5       0       0       0      22     -4.05978481      3.48405408      3.72773465
 B               4.98429626      7.17618792     14.91773303       5       0       0       0      21     -0.31079246     -0.40987442      3.99666783
 B               7.55155387      7.08285604     15.45024905       5      -1       0      -1      22      1.92489792      3.02746564     -6.13643739
 B              10.04834262      7.05641300     15.20338331       5      -1       0      -1      21     -1.42797541      8.73567440     -3.61466709
 B              12.46715609      7.05311686     15.24169048       5      -1       0      -1      22     -2.25568215      1.61495288     -7.45037797
 B              15.01211376      7.26868655     15.19089875       5      -1       0      -1      23     -0.68647542      2.55440190     -5.22895900
 B              -3.89133174      9.29684101     14.83324006       5       0      -1       0      21     -0.43558926      2.95321583      4.15631779
 B              -1.21635004      9.18466196     14.98949699       5       0      -1       0      22     -0.47170548     -1.41101913      0.55166353
 B               1.42174395      9.49471639     14.75316597       5       0      -1       0      24     -4.74684423     -3.42289508      2.17836429
 B               3.68669632      9.34253962     15.37075705       5       0      -1      -1      23     -0.57550807      1.17070383     -2.41750237
 B               8.96253945      9.54823595     15.39179056       5      -1      -1      -1      21     -2.09528099     -3.04345203     -3.80736818
 B              11.45944662      9.42423671     15.10563724       5      -1      -1      -1      22      1.52374351      0.88699274     -2.28604081
 B              13.89314632      9.62932057     14.54448085       5      -1      -1       0      22     -1.81082391     -3.20453866      7.65728167
 B              -5.17340656     11.66364439     15.24522456       5       0      -1      -1      22      1.19767039      1.58570376     -3.97455446
 B              -2.41064023     11.54636736     14.77223195       5       0      -1       0      24     -3.44364713      1.09655405      4.33803657
 B              -0.14699557     11.84862637     15.03084196       5       0      -1      -1      21      0.46207840     -2.75776023     -1.42692805
 B               2.24525529     11.59565691     15.24173636       5       0      -1      -1      22      1.67059934      2.60196095     -5.83743789
 B               4.88826740     11.46571784     15.15304538       5      -1      -1      -1      22     -3.59084153      4.49035643     -0.38222776
 B               7.39936425     11.75002340     15.16407510       5      -1      -1      -1      22      0.80845044     -3.09127039      0.37080147
 B              10.01179580     11.67249755     14.80169121       5      -1      -1       0      22      2.38305185     -0.46118294      2.42472853
 B              12.32638335     11.57171964     14.84170252       5      -1      -1       0      21      5.29670902      0.95681193      1.26788615
 B              -6.23291318     13.55820283     15.07136003       5       0      -1      -1      22     -0.74492735      3.93465301     -1.30759528
 B              -3.73071571     13.93086529     14.82695338       5       0      -1       0      22     -0.30224035     -4.25543380      4.33062499
 B              -1.16539176     13.95749782     15.01872811       5       0      -1      -1      22      0.25558555     -7.85757445     -0.11651157
 B               1.28410052     13.87407323     14.81151320       5       0      -1       0      24      6.31061678      4.04004732      1.66187764
 B               3.90086839     13.73555793     14.97739465       5      -1      -1       0      22     -3.67728110      2.87183719      0.61930000
 B               6.52968073     13.90110808     15.43372544       5      -1      -1      -1      21     -9.27749430     -1.91848374     -6.79545380
 B               8.90123099     13.85185624     15.30249890       5      -1      -1      -1      22      0.78059713      2.90434589     -8.39579019
 B              11.35077914     13.66132132     14.93445425       5      -1      -1       0      23      0.85127455      1.28847581     -0.44535849
 B              -7.55989665     16.21361864     15.39085819       5       0      -1      -1      24     -1.03470366      3.58536067     -5.42191001
 B              -4.85331448     16.10244420     14.91630112       5       0      -1       0      23     -0.82301210     -2.27084725      3.41416405
 B              -2.36550317     15.81206281     14.76770894       5       0      -1       0      23     -2.33911848      1.21571729      3.66407550
 B              -0.14614672     15.82296309     14.88132612       5       0      -1       0      23      1.17187336      3.30345952      2.58278215
 B               2.39033923     16.03566353     15.13952699       5      -1      -1      -1      22     -1.06572178     -3.60246445     -0.33286628
 B               4.85116652     15.79250322     14.77235910       5      -1      -1       0      22      2.88048644      2.27475758      4.61301363
 B               7.70854269     16.06086772     15.50299622       5      -1      -1      -1      23     -3.36671960     -0.31147923    -10.51969707
 B               9.67314784     15.82022664     14.80774862       5      -1      -1       0      22     12.02150533      0.93125181     -1.88938996
