 128
 energy=-596.05347136679734 cutoff=4.00000000 nneightol=1.20000000 pbc="T T T" Lattice="20.07638462       0.00000000       0.00000000     -10.03819231      17.38665923       0.00000000       0.00000000       0.00000000      30.00000000" Properties=species:S:1:pos:R:3:Z:I:1:map_shift:I:3:n_neighb:I:1:force:R:3
 Ti              6.30570685      9.41549458     16.36234564      22      -1      -1      -1      19      0.03490093      0.79571914      0.17171055
 N               4.78653659     10.23904548     15.38505196       7      -1      -1      -1      21      4.56887271     -2.18575481      2.68300185
 N               0.16466993      1.38755003     14.98616816       7       0       0       0      24     -6.11282954      0.19162993      0.46680523
 N               2.36356615      1.57543782     14.97588949       7       0       0       0      22      6.93568995     -8.53863489      0.57226177
 N               4.98978582      1.31445753     14.99359901       7       0       0       0      23      1.23563880      5.20584097     -1.10693527
 N               7.50109008      1.42305449     14.97888704       7       0       0       0      24      3.48510445      2.39793975     -0.30992076
 N              10.14969325      1.42559702     15.11208757       7      -1       0      -1      24     -2.77914339      0.00518072     -2.30057585
 N              12.48328357      1.41397730     15.11108193       7      -1       0      -1      23      2.38782000      4.32551673     -2.43052221
 N              14.91150824      1.50604135     15.03840312       7      -1       0      -1      24      5.48935911     -0.24438793     -0.43128743
 N              17.54707597      1.55806635     14.89028999       7      -1       0       0      23      2.07740296     -0.82421861      2.86681673
 N              -1.34404208      3.53327921     14.97772667       7       0       0       0      23     10.08857835      4.95538255     -0.81636235
 N               1.24237782      3.68512438     15.01671803       7       0       0      -1      24     -0.06073911     -5.68007461     -1.41364594
 N               3.81884059      3.63053738     14.88186800       7       0       0       0      24     -3.68305382     -3.00195205     -0.08505855
 N               6.28920944      3.53026859     14.88863662       7       0       0       0      24     -2.69394429      3.03392853     -0.45336066
 N               8.82364403      3.67866142     15.00307382       7      -1       0      -1      23     -2.72579764     -2.92861052     -2.22023250
 N              11.32248987      3.71706758     15.14293755       7      -1       0      -1      24     -0.71925259     -4.57610211     -2.46908627
 N              13.82498690      3.52524367     15.00647335       7      -1       0      -1      23      0.44889573      6.76141059      0.31796010
 N              16.39422730      3.63630922     15.02788709       7      -1       0      -1      24     -5.69824975     -3.45083935      0.30910500
 N              -2.53056884      5.86678350     14.99780717       7       0       0       0      24      3.19128533     -2.90251006     -0.58439976
 N              -0.05890655      5.73731783     14.97503738       7       0       0       0      24     -0.99848344      4.05289703     -0.78198765
 N               2.53201391      5.84722775     15.00684791       7       0       0      -1      23     -2.23620288     -3.55216388     -1.40674358
 N               4.93867157      5.67727544     14.90032059       7       0       0       0      21      5.37480297      5.66263796      0.10267295
 N               7.59722274      5.74813292     14.86499416       7      -1       0       0      24      0.34813154      3.21903621      0.57312600
 N               9.96636101      5.74011402     14.99090194       7      -1       0       0      23      5.27692821      5.42663875      0.56303185
 N              12.55385090      5.73889111     14.83632447       7      -1       0       0      24     -2.26123574      1.76268646      2.60859162
 N              15.03783229      5.87289613     14.93349759       7      -1       0       0      24     -0.53685792     -3.36453322      2.07986666
 N              -3.79803071      7.96472249     15.02261629       7       0       0      -1      24      2.01675534     -0.94224712     -0.59249585
 N              -1.18260534      7.82769602     14.96366825       7       0       0       0      22     -1.12486190      8.14235735     -0.44972979
 N               1.12561664      8.08379326     15.01397815       7       0       0      -1      23      8.57148616     -9.14851631      0.10113353
 N               3.83224783      7.96409659     15.09633033       7       0       0      -1      24     -6.15346140      1.00579598     -0.51552992
 N               6.28339364      7.76323956     15.44630027       7      -1       0      -1      24     -4.02985049      1.68833136      0.40607472
 N               8.93904045      7.91281517     15.05798377       7      -1       0      -1      22    -12.34059894      6.35479362      2.19259839
 N              11.22652895      8.03923900     14.92235969       7      -1       0       0      24      2.82479087     -7.36902914      1.68598498
 N              13.91242517      8.02852178     14.90655787       7      -1       0       0      22    -11.13569512      1.13968824      0.07468153
 N              -5.03843966     10.22864151     15.03576060       7       0      -1      -1      23     -0.49524909     -3.97931119     -1.40935246
 N              -2.56933902     10.21164160     15.06057453       7       0      -1      -1      24      2.30145528    -11.72010210     -0.53535315
 N               0.01423266     10.02838659     14.91263285       7       0      -1       0      24     -2.48485402      3.14405370      0.11556942
 N               2.52434020     10.11351412     14.85876726       7       0      -1       0      24      0.66362365      0.05306285      1.31116236
 N               7.56002164     10.18524786     15.45919141       7      -1      -1      -1      24      5.36758568      2.78370398     -0.50574101
 N              10.08575338     10.10944012     14.97301659       7      -1      -1       0      24      1.77552042      3.95619443      0.26095263
 N              12.64614948     10.22016007     15.01391053       7      -1      -1      -1      24     -3.46301240     -2.77689493     -0.87881805
 N              -6.33848921     12.22748108     14.99660818       7       0      -1       0      23      0.61929360      5.35599625      0.13171785
 N              -3.75596527     12.33595267     15.00222558       7       0      -1      -1      24     -0.78026014     -0.59178523     -0.49202289
 N              -1.19556147     12.51520734     14.99708559       7       0      -1       0      23     -4.20811033    -13.47859399     -0.09963509
 N               1.10556885     12.39746105     14.88613846       7       0      -1       0      23      7.39920553     -0.05122287      0.72601454
 N               3.89096177     12.30080527     14.99276341       7      -1      -1       0      24    -11.13663027      5.60238446     -0.99040184
 N               6.25490706     12.20387816     15.16380248       7      -1      -1      -1      24     -3.42366517      5.36071547      0.75454280
 N               8.83893011     12.36027925     14.90384952       7      -1      -1       0      23     -1.92875298      1.18669782      1.37878089
 N              11.23537902     12.32619096     14.93075224       7      -1      -1       0      23      6.90378129      0.81306682     -0.10660795
 N              -7.53031228     14.36147877     14.86518002       7       0      -1       0      23      1.45940418      2.43117542      1.72918528
 N              -5.08287906     14.51760688     15.08938414       7       0      -1      -1      24      3.45298148     -1.75999781     -0.99738782
 N              -2.45352194     14.50857858     15.01629487       7       0      -1      -1      23     -2.16517086     -4.43089566     -0.97341389
 N               0.03259903     14.42274924     14.97815497       7       0      -1       0      24     -1.88664493      2.51431860     -0.37572439
 N               2.40271517     14.48704962     14.97340371       7      -1      -1       0      23     10.22657205      4.71290163      0.21172353
 N               5.11925420     14.46705649     15.00349209       7      -1      -1      -1      23     -9.38011314      0.88633778     -0.47742620
 N               7.56384982     14.57154871     14.88454443       7      -1      -1       0      24     -0.04495117     -0.78789098      3.86130243
 N              10.02729796     14.46157709     14.85783702       7      -1      -1       0      24      6.16704591      0.16631122      0.52551030
 N              -8.84720903     16.82848421     14.98436070       7       0      -1       0      23      1.23423742    -11.01162128      0.85305329
 N              -6.25092048     16.65216453     15.03012893       7       0      -1      -1      24     -0.24029589      3.00322664      0.58175583
 N              -3.75863576     16.64280198     15.03898876       7       0      -1      -1      23      6.25312942      1.70751108     -1.68706766
 N              -1.35609170     16.68192778     15.01498338       7       0      -1      -1      24      3.96721383     -1.20525922     -0.39006648
 N               1.33459205     16.76170882     15.10298328       7      -1      -1      -1      24     -8.04901061     -8.34457210     -0.18908260
 N               3.67058349     16.60042908     15.04105899       7      -1      -1      -1      23      4.30412330      3.38676299     -1.53738377
 N               6.44089649     16.52462032     14.97238097       7      -1      -1       0      22    -12.68518872      7.76510599      0.54321683
 N               8.71214497     16.67908035     14.91922805       7      -1      -1       0      24      4.45898271      1.27731376      1.87831963
 B               1.32989129      0.68215598     15.02275454       5       0       0      -1      24     -2.63051882      4.48200484     -0.24376043
 B               3.71127141      0.80281685     15.03348102       5       0       0      -1      21     -1.55667287     -4.31441232     -0.48525545
 B               6.37479980      0.73278351     14.87245234       5       0       0       0      24     -5.79826469     -3.69188078      1.73189640
 B               8.77679638      0.77415184     15.08262992       5       0       0      -1      23      2.36646248     -1.63398777     -0.64952420
 B              11.39827821      0.58100081     14.93211796       5      -1       0       0      23     -3.93779835     10.68720623      1.39423457
 B              13.71903152      0.87642650     14.88354718       5      -1       0       0      23      0.25205438     -6.06155386      2.44527249
 B              16.43434112      0.72003161     15.13579887       5      -1       0      -1      24     -3.59872747     -0.71230300     -2.68477771
 B              18.82002324      0.70551156     15.09430188       5      -1       0      -1      24      1.18839570      2.69730253     -2.54885565
 B               0.04615558      2.77863723     14.88993100       5       0       0       0      23      0.52497655      2.28198320      1.54184464
 B               2.60936376      2.76509867     14.93475848       5       0       0       0      23     -3.32030567     12.32188364      0.07155602
 B               4.93584916      2.86264061     14.87765236       5       0       0       0      23      5.12354447     -1.84993094      0.59411319
 B               7.46283460      2.86360998     14.90296866       5       0       0       0      23      3.56320558      1.26826651      0.85376306
 B               9.98199236      2.90867251     14.82963708       5      -1       0       0      24      4.13990438     -1.14608962      4.11681285
 B              12.63218965      2.94050801     14.94617190       5      -1       0       0      24     -5.83846761     -2.73523673      2.20179138
 B              15.04006227      2.95015128     14.96058621       5      -1       0       0      23      3.08765305     -2.98309080      0.91091293
 B              17.61043365      3.09022742     15.10334086       5      -1       0      -1      24     -4.11505510     -9.68606726     -1.08966536
 B              -1.27504058      5.04410136     14.93790675       5       0       0       0      22     -1.61739224      0.51482654      0.67546762
 B               1.05867427      5.01520888     14.85429031       5       0       0       0      24      6.39399670      2.44217609      1.60654766
 B               3.76340869      5.03831757     14.88654295       5       0       0       0      24     -2.60772317      0.34342951      0.40190600
 B               6.37626325      5.12978320     14.89383192       5       0       0       0      23     -4.17976219     -4.62656332     -0.35919502
 B               8.90819659      5.09107859     14.80646136       5      -1       0       0      22     -7.40048671     -3.02518222      1.28713997
 B              11.17134779      5.04141677     15.00347608       5      -1       0      -1      24      3.95538323      2.78597454     -0.40047660
 B              13.78250424      5.11764045     15.14427644       5      -1       0      -1      24      2.22185680     -2.04037752     -3.38893211
 B              16.44920275      4.90239134     15.00114518       5      -1       0      -1      23     -3.46850194     11.12927501     -0.28130266
 B              -2.40844427      7.34528563     14.91196834       5       0       0       0      24     -6.24856501     -5.18728105      1.14167529
 B               0.07803204      7.33720898     14.95004365       5       0       0       0      23     -3.68980143     -7.50474816      0.22457240
 B               2.53987552      7.17439373     14.93125791       5       0       0       0      23     -0.83511934      3.78755997      1.29822688
 B               4.92666543      7.28055742     15.06851047       5       0       0      -1      22      4.62272713     -6.96304534      0.70497744
 B               7.43378482      7.20510260     15.26513514       5      -1       0      -1      23      7.06493776     -3.39377565     -3.18544539
 B               9.88669295      7.24195189     15.09525934       5      -1       0      -1      24     11.54768099     -4.35274749     -1.60854202
 B              12.55120464      7.17500276     15.06360177       5      -1       0      -1      23     -1.61792707      2.21811171     -2.91847315
 B              14.90346421      7.31693913     15.04948939       5      -1       0      -1      23     10.72264562     -5.04352930     -0.71601341
 B              -3.76137691      9.30657383     14.94160280       5       0      -1       0      23     -2.82117138      6.12682405      1.42793668
 B              -1.32030557      9.37723668     14.95756491       5       0      -1       0      24      3.86745283     -0.09357035      0.48499805
 B               1.31902168      9.28931887     14.88809140       5       0      -1       0      23     -2.12621455     10.79333460     -0.31675689
 B               3.83196175      9.42076839     15.20596926       5       0      -1      -1      23     -9.01073182     -1.69834393     -2.48409814
 B               8.88191984      9.50292629     15.23760735       5      -1      -1      -1      22     -1.60213576     -2.67246533     -0.90906565
 B              11.34214304      9.34874850     15.01263214       5      -1      -1      -1      23     -0.17796656      5.69903674     -0.54195039
 B              13.78056096      9.44011720     14.81965678       5      -1      -1       0      24      3.33286712      2.08901656      2.39008353
 B              -5.20896290     11.63157668     15.06254559       5       0      -1      -1      24     11.14124784     -2.51728825     -0.44855603
 B              -2.42711927     11.39899380     14.94166469       5       0      -1       0      23     -2.87042527     14.67512978      0.41207307
 B              -0.05143437     11.76897311     14.97233727       5       0      -1       0      23      0.89726867     -6.24174417     -0.52597853
 B               2.46484108     11.58068478     15.04066001       5       0      -1      -1      22     -1.33699995     -0.02228009     -2.22704851
 B               4.84313785     11.54644723     15.19137766       5      -1      -1      -1      22     10.05746596      0.98338079      0.50166828
 B               7.49534244     11.71783201     15.16358618       5      -1      -1      -1      22      3.13419205     -3.26825553      0.01820209
 B              10.10364535     11.70226901     14.89871850       5      -1      -1       0      23     -4.10853498     -5.72738402      0.58432976
 B              12.63605040     11.61043762     14.93646416       5      -1      -1       0      24     -8.77315747     -2.45226831      0.21676700
 B              -6.24064973     13.61382327     15.03899280       5       0      -1      -1      23     -1.71125127      5.54665215     -0.73194152
 B              -3.76170458     13.83605728     14.93274148       5       0      -1       0      23     -0.22817384     -2.44442997      1.72540359
 B              -1.29492871     13.65771264     14.97412011       5       0      -1       0      23      2.65670869     13.19360521      0.04101702
 B               1.34996630     13.85989549     14.91285656       5       0      -1       0      22     -8.22134044     -5.56449276      0.14021930
 B               3.81316435     13.76431997     14.97279954       5      -1      -1       0      23     -1.86650047      0.17285531      0.19886542
 B               6.18620424     13.88727042     15.16650846       5      -1      -1      -1      23     12.32029408     -6.76915216     -1.54874050
 B               8.93537099     13.81705969     15.06334898       5      -1      -1      -1      23     -9.74670298     -2.21132855     -2.00966264
 B              11.33560721     13.73591642     14.91123852       5      -1      -1       0      23     -1.80333470      0.06142468     -0.48302567
 B              -7.51392003     16.01987727     15.14102573       5       0      -1      -1      24     -1.24607700     -1.26643582     -2.83505661
 B              -4.85852203     15.99030634     14.99040484       5       0      -1       0      24     -8.62978872     -2.36309971      0.95149077
 B              -2.45780778     15.81786754     14.89636013       5       0      -1       0      23     -1.85158029      5.11820905      1.55528200
 B              -0.02774150     15.85577926     14.97492669       5       0      -1       0      24     -0.76570753      1.00277965      0.90623826
 B               2.40906653     16.08785302     15.03453707       5      -1      -1      -1      23      5.07867725     -7.12275123     -0.14369422
 B               4.94775901     15.80917743     14.93352741       5      -1      -1       0      23      1.71743227      6.58134131      0.92383478
 B               7.51611023     16.10606273     15.18001093       5      -1      -1      -1      23      6.34067920    -11.27922891     -2.25630928
 B               9.92268190     15.78512063     14.94987716       5      -1      -1       0      23      0.79074241      8.27620124     -0.28388812
