 128
 energy=-587.45762455844010 cutoff=4.00000000 nneightol=1.20000000 pbc="T T T" Lattice="20.07638462       0.00000000       0.00000000     -10.03819231      17.38665923       0.00000000       0.00000000       0.00000000      30.00000000" Properties=species:S:1:pos:R:3:Z:I:1:map_shift:I:3:n_neighb:I:1:force:R:3
 Ti              6.36063590      9.45399473     16.41417745      22      -1      -1      -1      21     -0.04222852     -0.70362114     -0.36157353
 N               4.83106387      9.92781173     15.56948711       7      -1      -1      -1      21     -3.91796186      1.82280854     -1.45062455
 N               0.13015708      1.23790725     15.24399205       7       0       0      -1      23     -0.34905557      2.55065513     -1.56153132
 N               2.61108267      1.78874682     14.91380278       7       0       0       0      22     -6.80293286      3.45049673      0.16469345
 N               4.96566437      1.03531528     14.92291719       7       0       0       0      21      2.22839845      5.19710248      0.49870056
 N               7.82808111      1.45654276     14.85644517       7       0       0       0      24     -3.07654782     -1.67323742      1.94448880
 N              10.19626232      1.73237712     14.95726904       7      -1       0       0      26      0.46296701     -4.89419781      1.09881902
 N              12.27288258      1.64664877     15.23628496       7      -1       0      -1      21      0.84797685     -4.70795702      2.48196865
 N              14.02859337      1.82895114     14.89668438       7      -1       0       0      23     -0.27163342      6.09830938      0.46521774
 N              17.72701017      1.50149306     14.93876991       7      -1       0       0      24    -10.56300416      5.35090055      0.46730703
 N              -1.13922577      3.38188160     14.93887246       7       0       0       0      22      0.83882237      1.80961791     -0.29732847
 N               0.95582101      3.70509202     14.86632576       7       0       0       0      24      3.47720447     -0.81478942      0.84047733
 N               3.78535742      3.61299007     14.81503960       7       0       0       0      22      0.09613186     -1.13715012      0.77657512
 N               6.22605669      3.45472034     14.72849440       7       0       0       0      23     -2.98174948     -4.00614029      1.25181145
 N               8.76859059      3.54366625     14.87430788       7      -1       0       0      22      2.55919910      5.04693490      3.08762112
 N              11.17209165      3.72683059     14.93941518       7      -1       0       0      23      4.34565856     -1.34028391      1.55196095
 N              13.76606073      3.49612805     15.04821604       7      -1       0      -1      22      0.92233088      3.79588822     -0.44641513
 N              16.35859512      3.67201026     15.14338213       7      -1       0      -1      21     -1.92482862     -1.48879719     -1.09521060
 N              -2.21442844      5.67582242     14.96968941       7       0       0       0      23    -10.29901691      2.10711712      0.53762486
 N              -0.49133109      5.65405926     14.92626600       7       0       0       0      23      7.42473300      7.22397914      1.34291442
 N               2.22667226      5.66643079     14.79679023       7       0       0       0      22      7.70671679      2.63148564      2.01057614
 N               5.00675021      5.61101709     14.76760431       7       0       0       0      22     -5.11033648      4.33116857      1.33625381
 N               7.44796289      5.66791879     14.78165912       7      -1       0       0      23      3.42137805      0.66257361      0.46780365
 N              10.01648645      5.69025768     15.10252672       7      -1       0      -1      23     -2.21193462      4.43333007     -0.30635626
 N              12.51750130      5.57248217     14.97616804       7      -1       0       0      25      2.64969893     -1.59495921     -2.67502431
 N              15.02354645      5.71139477     15.00446728       7      -1       0      -1      23     -2.36479661      3.96201047     -3.05351479
 N              -3.61904070      7.98110140     14.92495762       7       0       0       0      23     -0.85686435     -1.41850253      0.94194813
 N              -1.11404000      7.56977200     14.85209946       7       0       0       0      22      3.88030165      4.23941645      1.08814093
 N               1.44001290      8.01705532     14.88889627       7       0       0       0      24     -1.09692414     -0.94079211      0.92102832
 N               3.74594243      7.75116511     15.25330717       7       0       0      -1      21      2.72931177      4.21663614      0.71275274
 N               6.38968433      7.61453796     15.44136881       7      -1       0      -1      20     -0.31218855      0.89644432      0.09092970
 N               8.78864934      8.05925111     15.27258926       7      -1       0      -1      22      5.11885891     -1.87834248     -2.04986357
 N              11.38550803      7.74712366     15.03491401       7      -1       0      -1      24     -1.57595540      3.90234896     -1.79758914
 N              13.72357230      8.16273382     14.84220436       7      -1       0       0      22      3.07455310     -8.60717160     -1.79571328
 N              -5.01200342     10.32549269     14.97195620       7       0      -1       0      23     -1.06379192     -3.32663383      0.91643417
 N              -2.49269244      9.35991222     14.95088040       7       0      -1       0      22     -0.52579554     -3.19703292      0.56610661
 N              -0.01293367     10.07287273     14.93973137       7       0      -1       0      22     -2.63030792     -1.87081085      0.17243210
 N               2.30762542     10.42121395     14.89699183       7       0      -1       0      21      3.92906935     -6.97145215      0.38315215
 N               7.97113937     10.33354803     15.59543989       7      -1      -1      -1      20     -5.52994815     -3.25199767      2.03382872
 N              10.25946615     10.30235185     15.06774273       7      -1      -1      -1      23     -2.64490852     -1.69694545     -1.33930985
 N              12.64797039     10.04706898     15.13681912       7      -1      -1      -1      23     -0.90563384      4.25099856     -0.10589401
 N              -6.31691822     12.31957590     14.82162121       7       0      -1       0      22     -0.52294481      3.76055522      1.26012736
 N              -3.89369850     12.45204332     15.05424049       7       0      -1      -1      22      2.06906854      0.60437412      1.24240701
 N              -1.39387102     12.48312141     14.78259049       7       0      -1       0      22      1.26388964     -3.09803539      0.63871571
 N               1.10400205     12.41746322     14.86823931       7       0      -1       0      21     -2.36615936      3.83331012     -0.41738989
 N               3.35454281     12.42340271     14.95019622       7      -1      -1       0      21     13.18108038      6.64189328      1.38013192
 N               6.32231597     12.42172794     15.43130483       7      -1      -1      -1      22     -3.21466076     -5.85595935     -1.14743102
 N               8.49196808     12.50671037     15.08709690       7      -1      -1      -1      22      8.16042427      1.14798038     -4.03592616
 N              11.03311836     12.21079565     15.04621459       7      -1      -1      -1      22      8.07969639      3.81100999     -0.31862949
 N              -7.43768033     13.43515829     14.64565602       7       0      -1       0      23     -1.42457206     -4.72313349      0.34541993
 N              -4.85540003     14.58686417     14.95772875       7       0      -1       0      23     -3.23445904     -1.81978824      1.18182204
 N              -2.56441694     14.55259460     14.96611604       7       0      -1       0      23      3.10866814     -3.11391462      0.76070418
 N               0.16739846     14.75721842     15.14221084       7       0      -1      -1      22     -0.63692913     -7.67436681     -0.03618444
 N               2.75358578     14.49215987     14.94109926       7      -1      -1       0      21     -0.15185739      2.98728612      1.07345082
 N               5.20778840     14.47858124     15.14124129       7      -1      -1      -1      20     -3.54861117      1.13560989     -1.15069539
 N               7.86228197     14.66141522     15.29709980       7      -1      -1      -1      22     -2.74241973      1.98331876     -3.58644652
 N              10.07293437     14.68624427     14.85862624       7      -1      -1       0      24      5.78185707     -2.28544551     -2.15350596
 N              -8.83530366     16.67519319     14.96784398       7       0      -1       0      24     -6.42033129      5.07556389     -2.07349105
 N              -6.25880593     16.89777947     14.95600829       7       0      -1       0      23      1.69405610      2.05852290      1.59732939
 N              -3.39974533     16.59101332     15.16090378       7       0      -1      -1      23     -3.03029028     -2.63992262      0.85860373
 N              -1.16253303     16.80504598     14.83994248       7       0      -1       0      23     -2.84238968     -1.84964957     -0.90176735
 N               0.97991521     16.48412810     14.98501585       7      -1      -1       0      23      7.81418263      2.69325550      0.60362812
 N               3.79416532     16.76471291     14.94861708       7      -1      -1       0      23     -1.26441934     -8.04949978      2.85486361
 N               6.38229321     16.46858745     15.07426365       7      -1      -1      -1      23      0.85743690      3.37255777     -1.26988103
 N               8.91266392     16.98754891     15.06154473       7      -1      -1      -1      21      3.93639725     -5.00652001     -4.71944071
 B               1.35249994      0.70546938     14.93765340       5       0       0       0      22      2.01095867      4.48853877      0.49971589
 B               3.63689597      1.09510055     14.95911770       5       0       0       0      22      3.44340162     -9.95237323      0.14567061
 B               6.35991368      0.58570171     15.07751015       5       0       0      -1      22      3.06275606     -0.44034167     -1.47864214
 B               9.10248270      0.73793846     14.98538132       5       0       0       0      23     -1.22118738      6.05581629     -0.78938581
 B              11.23053648      0.63261860     15.02310513       5      -1       0      -1      24     -2.46510143      4.07274420      0.32162511
 B              13.45177942      0.66330432     15.25566534       5      -1       0      -1      24      0.39465225      7.63884650     -2.10759419
 B              16.61144183      0.44866634     14.85670049       5      -1       0       0      20     -3.81534109      6.90338997      2.53373556
 B              18.84632801      1.03056506     14.81462456       5      -1       0       0      23      9.01218157     -8.66090699      2.10971360
 B              -0.02093890      2.65110712     14.97630564       5       0       0       0      25      2.17562655     -0.77008401      0.78106099
 B               2.38927685      3.35246445     14.93889543       5       0       0       0      24     -4.30474976     -5.95316735     -1.38045725
 B               4.89412531      2.65613129     14.85508427       5       0       0       0      22      1.10802508     -2.59293886     -0.42779750
 B               7.55228058      2.88315887     14.95081336       5       0       0       0      24      1.10521923     -2.18126514     -1.89283484
 B              10.13314389      3.07321851     15.29652362       5      -1       0      -1      23     -5.41144540     -2.37229515     -3.79131700
 B              12.61008822      2.96878554     15.31187207       5      -1       0      -1      23     -0.78908434     -6.35558670     -4.08677760
 B              14.97531849      2.92902628     14.97119628       5      -1       0       0      24      2.94386407     -1.61793376      1.50185179
 B              17.69580651      3.08270796     15.21493117       5      -1       0      -1      23     -4.58477380     -3.67744882     -2.20480895
 B              -1.33431990      4.78753029     14.89049546       5       0       0       0      23     -0.14945678      0.26592762     -0.19282585
 B               0.99181896      5.19829558     15.00081742       5       0       0      -1      23     -0.76510095     -5.55368949     -1.60601053
 B               3.74668038      4.98580418     14.87069532       5       0       0       0      23     -3.00075619      4.90729095     -1.30698102
 B               6.09466655      4.85437211     14.76988316       5       0       0       0      23      7.09682482      1.23670436     -0.27736613
 B               8.78401982      5.01482008     14.98854613       5      -1       0       0      23     -2.98474927     -2.77111204     -1.42262797
 B              11.20343188      4.98232522     14.99942600       5      -1       0       0      23      0.90755061      3.18069508     -0.23132463
 B              13.80153580      4.84651229     14.68725586       5      -1       0       0      21      0.11422881      1.36056399      4.44044039
 B              16.28644201      5.27636546     14.91869544       5      -1       0       0      23      8.75049025     -5.13058140      1.52600768
 B              -2.30770894      7.18348329     15.00645222       5       0       0      -1      21     -9.38485078      2.22183700     -0.95447462
 B               0.14069185      6.98293538     14.99534929       5       0       0       0      23     -0.06911879      1.47401632     -1.79414027
 B               2.61831980      7.22225850     15.01116510       5       0       0      -1      21     -5.35543129     -1.31813763     -1.61729558
 B               5.01837388      7.13617237     15.18431329       5       0       0      -1      22      2.73399312     -3.75842709     -0.79267842
 B               7.77619859      7.17849294     15.02917956       5      -1       0      -1      22     -8.39076491     -4.79014856      1.27612852
 B              10.01170570      7.26489925     15.01003136       5      -1       0      -1      21      2.72789147     -2.80563355      1.77071190
 B              12.61073298      6.98352428     14.71313895       5      -1       0       0      23     -1.83550643      3.93433748      3.79720593
 B              15.07092512      7.36738333     14.82702891       5      -1       0       0      23     -0.18345023      1.52159142      1.47344692
 B              -3.80545868      9.44080741     15.10745874       5       0      -1      -1      23     -3.81977012     -1.66497573     -1.86691673
 B              -1.24212904      9.08799043     15.06956859       5       0      -1      -1      22      3.81463236     -2.41541117     -2.16462330
 B               1.28279413      9.47719097     14.81622299       5       0      -1       0      22     -1.61125081      0.84577879      1.09676561
 B               3.46110936      9.26964030     15.27280905       5       0      -1      -1      20      0.24198728      3.01673244     -1.03579958
 B               8.91906477      9.47279014     15.18363600       5      -1      -1      -1      22      6.18795824      3.71369049      0.45234201
 B              11.47466441      9.53243839     14.99313818       5      -1      -1       0      24     -4.37324916     -5.73750132      0.39048808
 B              13.77130733      9.46543857     14.99899845       5      -1      -1       0      22      6.05571339      1.96997368     -0.48593037
 B              -5.08818995     11.72495763     14.99931060       5       0      -1       0      23     -2.47563124     -1.28540776     -0.34671669
 B              -2.71209822     11.95689672     14.92849918       5       0      -1       0      20      9.24894012     -5.89188332     -0.37403422
 B              -0.22478017     11.47350952     14.87238698       5       0      -1       0      22      5.54004019      5.00559073     -0.31174782
 B               2.33805571     11.85134861     14.81936366       5       0      -1       0      21     -9.49175401     -6.73995184      0.13245702
 B               4.66041827     11.68660919     15.15264130       5      -1      -1      -1      21     -2.16970183      0.56369987      1.24769060
 B               7.50871060     11.59138009     15.27013741       5      -1      -1      -1      22      0.27958285      3.91133786      0.83725492
 B               9.84062819     11.76430101     14.97772590       5      -1      -1       0      21     -0.96784052     -4.41973480      1.08538140
 B              12.53778770     11.62279692     14.88010645       5      -1      -1       0      22     -4.10064902      6.55302475      0.84210526
 B              -6.10926368     13.81828189     14.94811250       5       0      -1       0      21     -6.90694721      0.05543681     -1.70037151
 B              -3.74464877     13.81551439     15.13899342       5       0      -1      -1      22      0.75501787      2.91483728     -1.30089103
 B              -1.31790328     13.76474182     15.04319433       5       0      -1      -1      22      3.32912110      8.01742894     -0.55709783
 B               1.48990179     14.08602542     14.90285952       5       0      -1       0      23     -8.65369737     -7.03834780      0.83555994
 B               3.90844613     13.82123559     15.05423576       5      -1      -1      -1      20      0.81943496     -0.95186526     -0.50390184
 B               6.43627264     13.66693593     15.03912688       5      -1      -1      -1      23      1.98396385      8.11122658      2.75365503
 B               8.96094310     13.94134753     14.80254168       5      -1      -1       0      23     -7.62087513     -0.33438955      3.84487703
 B              11.29414454     13.63717112     14.91692805       5      -1      -1       0      24     -1.44429195     -0.08422990     -0.44121109
 B              -7.60301707     16.53390645     15.08326652       5       0      -1      -1      23      6.35474898     -8.09789614     -0.52188509
 B              -4.99984901     15.94516350     15.14488846       5       0      -1      -1      23      4.65767804      6.55605150     -1.62732072
 B              -2.25258747     15.86550461     14.93182509       5       0      -1       0      23     -1.48985988      6.79221086      0.59880504
 B              -0.23113503     15.95176323     15.01279547       5       0      -1      -1      22      2.31866303     -0.23810753      0.11228386
 B               2.42865898     15.89434381     15.18063389       5      -1      -1      -1      22      0.48389918      0.58706570     -3.32236898
 B               5.09758583     15.93557233     15.09277584       5      -1      -1      -1      24     -3.39605432     -2.73193065     -0.71351690
 B               7.76300278     16.27941298     14.95560002       5      -1      -1       0      21      1.67410173     -8.00749303      2.61478198
 B              10.03241304     16.02975735     14.61582606       5      -1      -1       0      23     -1.30238502      3.01640072      4.80587767
