 128
 energy=-586.23201371989262 cutoff=4.00000000 nneightol=1.20000000 pbc="T T T" Lattice="20.07638462       0.00000000       0.00000000     -10.03819231      17.38665923       0.00000000       0.00000000       0.00000000      30.00000000" Properties=species:S:1:pos:R:3:Z:I:1:map_shift:I:3:n_neighb:I:1:force:R:3
 Ti              6.35917390      9.45242067     16.41147600      22      -1      -1      -1      20     -0.29776893     -0.74623165     -0.34048005
 N               4.84527219      9.93595784     15.54145943       7      -1      -1      -1      21     -3.50352416      2.66369094     -1.03160749
 N               0.12046502      1.20263038     15.21522989       7       0       0      -1      23      3.08854471      3.29328587     -0.72590478
 N               2.56846181      1.78597466     14.91063288       7       0       0       0      22     -5.96092074      2.31743847      0.50679082
 N               4.93134289      1.03102418     14.94322635       7       0       0       0      21      2.46664751      4.81597418      0.21936890
 N               7.79707714      1.47679305     14.85366631       7       0       0       0      23     -1.89476968     -2.07290658      1.73656251
 N              10.24228080      1.66843774     14.99643634       7      -1       0       0      26      0.06223325     -2.58716511      0.43156420
 N              12.27677208      1.66658164     15.26106071       7      -1       0      -1      21      0.89390552     -5.74678406      1.02645845
 N              14.13955979      1.78179285     14.93230892       7      -1       0       0      23     -4.28965861      5.07458553     -0.46978871
 N              17.72480922      1.59944910     14.90404888       7      -1       0       0      25     -7.04001346      0.86702376      0.74686794
 N              -1.11097712      3.37488445     14.92387193       7       0       0       0      22     -1.10065265      1.22392468      0.52519320
 N               1.02437877      3.65535332     14.90488146       7       0       0       0      23     -0.30475672      3.44111187      0.12709354
 N               3.79742059      3.59976273     14.81622221       7       0       0       0      22     -0.57113754      0.49403570      0.80773464
 N               6.18185925      3.48243535     14.73385061       7       0       0       0      23      0.06568905     -5.50539615      1.16452020
 N               8.74537430      3.55486129     14.92141213       7      -1       0       0      22      3.97573631      4.53164813      1.60985642
 N              11.19412081      3.70407414     14.98256973       7      -1       0       0      23      5.67518326      2.48552395      0.64488081
 N              13.79047619      3.53405799     15.04617181       7      -1       0      -1      22      0.33030535     -1.46033381      0.38625593
 N              16.33525638      3.65494822     15.12599106       7      -1       0      -1      21     -0.53054035     -1.69366323     -0.71539527
 N              -2.19982552      5.70693479     14.98443637       7       0       0       0      23     -8.25565787      1.32385009     -0.01171384
 N              -0.51136482      5.66548634     14.94638601       7       0       0       0      23      7.47304026      5.06388864      0.64031086
 N               2.22731164      5.70495083     14.83485611       7       0       0       0      22      7.42267795      0.77105012      1.27887492
 N               5.03447901      5.65059638     14.78376469       7       0       0       0      23     -6.06599992      1.90407217      0.86258671
 N               7.50809549      5.70525839     14.79258539       7      -1       0       0      23      1.83130420     -0.39856792      0.31886287
 N               9.99882442      5.69444308     15.10883947       7      -1       0      -1      23     -0.72683358      3.67501978     -0.74136169
 N              12.45398449      5.56503067     14.93374160       7      -1       0       0      24      5.73420977     -0.51802077     -1.52887462
 N              14.98548655      5.73028952     14.97501145       7      -1       0       0      22      0.34548355      3.17879447     -1.93115611
 N              -3.62361670      7.94692049     14.94264674       7       0       0       0      22     -1.86912016      0.15006263      0.52055087
 N              -1.10670351      7.63076869     14.87206761       7       0       0       0      21      3.52597501      0.90886964      0.84508327
 N               1.50201705      7.97563712     14.91353793       7       0       0       0      24     -7.06399770      4.02536598     -0.04788028
 N               3.70088042      7.77371588     15.24656666       7       0       0      -1      21      6.66914057      3.41540671      0.97624273
 N               6.34227918      7.63713275     15.43127144       7      -1       0      -1      20      0.95028556      0.94593894      0.25544354
 N               8.75250982      8.08421419     15.21867339       7      -1       0      -1      23      8.39735343     -3.16988853     -0.83685495
 N              11.38393807      7.71413651     15.00077641       7      -1       0      -1      23     -3.16041492      5.00038495     -0.31453006
 N              13.71045065      8.20437641     14.84471287       7      -1       0       0      22      2.90358811     -6.92785539     -0.94552741
 N              -5.01740676     10.29975168     14.98803812       7       0      -1       0      23     -2.10211453     -0.24468933      0.26765175
 N              -2.49786045      9.44865922     14.97340749       7       0      -1       0      21     -1.12971318     -2.10521230      0.74484058
 N               0.00274694     10.01039067     14.93328597       7       0      -1       0      22     -3.00008490      1.15221139      0.37900009
 N               2.38959330     10.38344462     14.87905983       7       0      -1       0      22      1.75563256     -5.35464914      0.90986923
 N               7.92274255     10.32733861     15.58487131       7      -1      -1      -1      20     -5.86324971     -3.75909458      1.85956283
 N              10.26421606     10.32582048     15.04953046       7      -1      -1      -1      22     -0.95868579     -3.66251201     -0.85397992
 N              12.65344178     10.06520689     15.14225963       7      -1      -1      -1      22      1.11832219      4.71785682      0.10560092
 N              -6.38303517     12.28198478     14.81132604       7       0      -1       0      22      2.33172870      2.46584373      1.85493240
 N              -3.86069852     12.44816301     15.04833603       7       0      -1      -1      21     -1.63362096      0.78297858      1.34197307
 N              -1.41291931     12.45684070     14.79536706       7       0      -1       0      22      1.62484156      0.46544643      0.94522885
 N               1.10983398     12.44625892     14.85478910       7       0      -1       0      21     -3.64465283      4.02884058      0.03759576
 N               3.37638264     12.42212396     14.93472999       7      -1      -1       0      21     10.75288984      4.50175521      1.00316762
 N               6.27324202     12.40052985     15.40921015       7      -1      -1      -1      22     -3.17907223     -7.02617796     -1.21793747
 N               8.50926986     12.51388293     15.07080932       7      -1      -1      -1      22      6.68879098     -0.77629089     -2.96079942
 N              11.04260021     12.20858587     15.03941218       7      -1      -1      -1      21      9.50903149      3.65819260     -0.52269188
 N              -7.42415595     13.54066819     14.67759942       7       0      -1       0      23     -1.52402957     -4.48912785     -0.30879827
 N              -4.86013420     14.61492648     14.97455468       7       0      -1       0      22     -3.00912490     -4.93576215      0.90254940
 N              -2.55421934     14.53900484     14.99130275       7       0      -1       0      23      2.35524514     -3.55407667      0.27237519
 N               0.15000205     14.71036541     15.13702288       7       0      -1      -1      22     -1.32525435     -5.54150351     -0.52443084
 N               2.77808268     14.51999411     14.95427862       7      -1      -1       0      21     -3.53159054      2.33588430      0.52582081
 N               5.20989368     14.42548754     15.13322709       7      -1      -1      -1      20     -4.69142754      4.12116210     -1.02813308
 N               7.91978804     14.70972670     15.20776476       7      -1      -1      -1      23     -7.70197773      1.61813642     -0.47791705
 N              10.08132799     14.61757133     14.85462446       7      -1      -1       0      24      6.17525503      1.00124739     -2.24173624
 N              -8.88939957     16.62297465     14.95837632       7       0      -1       0      23     -2.18141215      7.28723487     -1.36873385
 N              -6.25116823     16.91766083     14.93453620       7       0      -1       0      23     -0.06747093      0.80020046      2.00152445
 N              -3.33729920     16.60097929     15.16233564       7       0      -1      -1      23     -4.83923212     -1.98720014      0.71723085
 N              -1.17272625     16.77805102     14.86772840       7       0      -1       0      23     -4.86125040      0.07927798     -1.15579263
 N               0.90785036     16.46552673     15.00813568       7      -1      -1      -1      23     11.76144287      4.89192920      0.27139084
 N               3.78040068     16.77723819     14.97203946       7      -1      -1       0      23     -1.62067486     -9.60748065      1.58240873
 N               6.37047214     16.45407318     15.03238166       7      -1      -1      -1      23      1.51413610      1.73973136     -0.60645116
 N               8.84259782     17.02920778     15.04251096       7      -1      -1      -1      21      5.34193378     -6.89726113     -3.81013190
 B               1.37620159      0.67250131     14.96049854       5       0       0       0      22      0.95924451      4.93004073      0.04353044
 B               3.60086859      1.00766486     14.98063635       5       0       0       0      21      3.76821197     -3.74165352     -0.32558450
 B               6.33308527      0.55808346     15.00896613       5       0       0      -1      22      2.73157946      0.62180290     -0.45050751
 B               9.10683341      0.72613426     15.05737037       5       0       0      -1      23     -2.04140414      5.31688614     -1.64446416
 B              11.24949781      0.67575540     14.94414196       5      -1       0       0      24     -1.63687538     -0.13338485      1.67032561
 B              13.45341956      0.64666999     15.16129384       5      -1       0      -1      24     -0.85720897      9.50586735     -0.25002714
 B              16.58837162      0.45582185     14.93168195       5      -1       0       0      21      0.79888443      4.87394304      1.09497899
 B              18.89954508      1.07267322     14.88485253       5      -1       0       0      22      2.63889296     -7.87675015      0.93578254
 B               0.03242630      2.64968476     14.91571623       5       0       0       0      25     -0.56459540     -1.12949823      1.30698549
 B               2.35684098      3.42245537     14.94681136       5       0       0       0      24      2.19431758     -8.45500459     -1.21358983
 B               4.93923041      2.63450702     14.84590098       5       0       0       0      22     -0.67035335     -1.65745415     -0.12750429
 B               7.54515656      2.90651433     14.95844893       5       0       0       0      24      0.04735733     -2.52369800     -1.90978168
 B              10.17338593      3.08589840     15.17641846       5      -1       0      -1      23     -8.08398934     -4.74005155     -1.71031000
 B              12.57199631      2.96776862     15.26425962       5      -1       0      -1      23      0.62443841     -4.20504212     -3.15700318
 B              15.02136519      2.88007831     14.92419624       5      -1       0       0      24      1.30105116      0.60917919      2.15422140
 B              17.66750875      3.00723760     15.27305665       5      -1       0      -1      23     -0.83141034      0.30643519     -3.51921184
 B              -1.34787159      4.76518530     14.89983504       5       0       0       0      23     -1.68405614      1.88909746     -0.44808100
 B               1.02030752      5.20587618     14.92346030       5       0       0       0      23     -3.68931425     -5.23614015     -0.29189418
 B               3.71333131      4.98935045     14.87999500       5       0       0       0      23     -1.74757236      2.29661900     -1.23719887
 B               6.10918966      4.84615168     14.79370866       5       0       0       0      22      6.15958285      3.57706897     -0.34681136
 B               8.76254744      5.00821567     14.90527139       5      -1       0       0      23     -1.28449818     -1.75535409      0.21877081
 B              11.24775644      5.02399335     14.98992966       5      -1       0       0      23     -3.50065250      0.17108874      0.15081124
 B              13.83084395      4.80504399     14.79632874       5      -1       0       0      22     -1.44995721      5.51731552      1.86013831
 B              16.30749700      5.29047580     14.89658968       5      -1       0       0      23      6.78239540     -4.57256465      1.94634309
 B              -2.32711469      7.17839535     14.96379280       5       0       0       0      21     -5.47559183      1.75245565     -0.10503653
 B               0.14495345      6.94876295     14.99676481       5       0       0       0      23      0.45245357      2.05307142     -1.55442618
 B               2.58217972      7.32077959     14.98885646       5       0       0       0      21     -2.27517012     -5.86337992     -1.13052737
 B               5.03772298      7.10800022     15.12480432       5       0       0      -1      23     -0.01473721     -1.70649957      0.26083569
 B               7.83032483      7.17405290     15.10314317       5      -1       0      -1      22    -11.18685405     -5.35906035      0.14035799
 B              10.08019956      7.24872473     15.04099160       5      -1       0      -1      22     -0.71976194     -2.76828026      0.88718841
 B              12.50820656      6.98614891     14.79534997       5      -1       0       0      23      3.45685577      3.02681757      1.52103049
 B              15.11284109      7.32937604     14.89536053       5      -1       0       0      23     -2.20856017      2.36270365      0.24789906
 B              -3.87026016      9.46969621     15.06617349       5       0      -1      -1      23      0.70505352     -4.17626711     -1.24902334
 B              -1.21087922      9.05896226     15.07115511       5       0      -1      -1      23      1.38194087      0.18921937     -1.99858712
 B               1.28625355      9.53832502     14.78576093       5       0      -1       0      22      0.40163396     -2.60995478      1.53653788
 B               3.45744322      9.26357162     15.30967607       5       0      -1      -1      20      0.66838076      2.74892712     -1.93245362
 B               8.88824148      9.42939823     15.22966818       5      -1      -1      -1      22      6.32777416      6.58133006     -0.44898469
 B              11.54506344      9.57353006     15.01905411       5      -1      -1      -1      23     -7.63080224     -6.12742979     -0.35711237
 B              13.79190587      9.52846882     14.91046330       5      -1      -1       0      23      5.35649038     -0.55837642      0.33419929
 B              -5.02199770     11.72971307     15.06663006       5       0      -1      -1      23     -6.88299304     -2.07317401     -1.55495060
 B              -2.72733279     11.96653157     14.89875152       5       0      -1       0      20     11.65479573     -8.79616014     -0.50942060
 B              -0.23693830     11.51685362     14.91416972       5       0      -1       0      22      4.75115367      2.07985813     -0.94768091
 B               2.29033071     11.84074163     14.90158851       5       0      -1       0      21     -3.89280513     -6.09493823     -0.26282883
 B               4.72824612     11.65058804     15.13500572       5      -1      -1      -1      21     -2.02068211      1.66672098      1.67952958
 B               7.47169424     11.57075193     15.24431916       5      -1      -1      -1      21      1.74797995      5.93161673      0.69230279
 B               9.90072077     11.71822630     14.93332288       5      -1      -1       0      23     -4.95938082     -1.22857716      1.24466729
 B              12.45514877     11.57461520     14.85393060       5      -1      -1       0      22     -1.85436581      6.48762694      1.73040410
 B              -6.13155676     13.78706484     14.97607651       5       0      -1       0      21     -5.18465755      1.27996442     -1.34450189
 B              -3.73809614     13.78733243     15.09093782       5       0      -1      -1      22     -0.08868214      5.60470214     -0.81598905
 B              -1.26977584     13.82683780     15.04959274       5       0      -1      -1      22      3.25437876      4.42153831     -0.84229886
 B               1.47511788     14.07205971     14.86848593       5       0      -1       0      23     -6.34377478     -4.90370993      1.48278991
 B               3.86140804     13.83695342     15.04352392       5      -1      -1      -1      20      4.31545689     -3.08246597     -0.22347258
 B               6.45795554     13.66629929     15.11564313       5      -1      -1      -1      22      3.13976340      6.77199219      1.05789189
 B               8.93035440     13.96729579     14.88506216       5      -1      -1       0      22     -4.04709734     -3.08582654      1.51448107
 B              11.32693399     13.64055846     14.92055848       5      -1      -1       0      24     -2.88011327     -0.10195685     -0.20172663
 B              -7.64744139     16.56374632     15.15230318       5       0      -1      -1      23      7.31381344     -8.37762285     -0.97975892
 B              -5.01074238     15.94129202     15.11209392       5       0      -1      -1      23      3.61718964      7.01315783     -1.06101869
 B              -2.29567544     15.84730460     14.90161048       5       0      -1       0      23      0.99569753      7.71306508      0.52931908
 B              -0.23320102     15.99033803     14.98515262       5       0      -1       0      22      1.98859140     -4.59356369      0.63545933
 B               2.43521449     15.85610969     15.20111610       5      -1      -1      -1      22     -0.80293296      2.40988269     -3.14427423
 B               5.05393784     15.95516394     15.02583876       5      -1      -1      -1      23     -1.42857179     -3.69578719      0.29849070
 B               7.77116557     16.20130263     15.05710131       5      -1      -1      -1      21      0.64611688     -5.04288910      0.61094743
 B              10.03246158     16.02572151     14.59796572       5      -1      -1       0      23     -5.48220184      0.11149625      4.87460487
