 128
 energy=-587.52647797649206 cutoff=4.00000000 nneightol=1.20000000 pbc="T T T" Lattice="20.07638462       0.00000000       0.00000000     -10.03819231      17.38665923       0.00000000       0.00000000       0.00000000      30.00000000" Properties=species:S:1:pos:R:3:Z:I:1:map_shift:I:3:n_neighb:I:1:force:R:3
 Ti              6.35992321      9.45328296     16.41286031      22      -1      -1      -1      20     -0.18188063     -0.74740129     -0.33354215
 N               4.83945079      9.93111753     15.55590304       7      -1      -1      -1      21     -3.72772182      2.22964846     -1.24892417
 N               0.12487715      1.21924877     15.23000899       7       0       0      -1      23      1.26091642      2.96427198     -1.15665277
 N               2.59201548      1.78626478     14.91210716       7       0       0       0      22     -6.51889213      3.18486840      0.32160875
 N               4.94771352      1.03142121     14.93294751       7       0       0       0      21      2.29607701      5.08123309      0.36109072
 N               7.81343571      1.46731575     14.85442420       7       0       0       0      24     -2.48923829     -1.88264962      1.83527138
 N              10.21913491      1.70174492     14.97658524       7      -1       0       0      26      0.39710350     -3.88677438      0.77722142
 N              12.27451346      1.65841392     15.24807070       7      -1       0      -1      21      0.91210919     -5.22709391      1.74981092
 N              14.08505050      1.80330431     14.91450696       7      -1       0       0      23     -2.83023404      6.00872203     -0.02996807
 N              17.72907695      1.54920760     14.92118171       7      -1       0       0      24     -9.20410412      3.67169698      0.66166007
 N              -1.12499081      3.37784133     14.93133833       7       0       0       0      22     -0.32150890      1.57416238      0.09841087
 N               0.98943698      3.67973632     14.88543864       7       0       0       0      24      1.92643699      1.41334061      0.47940187
 N               3.79144893      3.60649366     14.81535634       7       0       0       0      22     -0.17414220     -0.34075323      0.79789262
 N               6.20448967      3.47029719     14.73075062       7       0       0       0      23     -1.54513752     -4.99643459      1.22600505
 N               8.75582418      3.54756403     14.89704646       7      -1       0       0      22      3.36593548      4.93947538      2.36417998
 N              11.18123623      3.71524450     14.96065044       7      -1       0       0      23      5.43426164      0.60406550      0.99389134
 N              13.77803505      3.51463226     15.04718229       7      -1       0      -1      22      0.67829476      1.33897858      0.03380222
 N              16.34737478      3.66405067     15.13500320       7      -1       0      -1      21     -1.30488309     -1.66057772     -0.92005874
 N              -2.20388881      5.69072026     14.97696848       7       0       0       0      23     -9.41018343      1.91316189      0.27436791
 N              -0.50394086      5.65759272     14.93597943       7       0       0       0      23      7.53503193      6.33535497      1.00715300
 N               2.22430587      5.68510203     14.81525935       7       0       0       0      22      7.80578941      1.71100699      1.63846650
 N               5.02263434      5.62967924     14.77529268       7       0       0       0      23     -5.86936628      3.27651917      1.13863241
 N               7.47709860      5.68655254     14.78697858       7      -1       0       0      23      2.70430764      0.10476186      0.41751373
 N              10.00816620      5.69096503     15.10586333       7      -1       0      -1      23     -1.48430025      4.02584814     -0.52376915
 N              12.48429448      5.56916296     14.95567804       7      -1       0       0      25      4.20912918     -1.18141562     -2.10168499
 N              15.00490372      5.71958196     14.99060074       7      -1       0       0      23     -1.12526374      3.66212824     -2.50316655
 N              -3.62084258      7.96423045     14.93354368       7       0       0       0      23     -1.41267872     -0.63789653      0.75119701
 N              -1.11170192      7.59930860     14.86173698       7       0       0       0      22      3.86546933      2.79484001      1.00709021
 N               1.47234929      7.99579161     14.90107048       7       0       0       0      24     -3.87754275      1.61170143      0.42608386
 N               3.72168224      7.76111076     15.24963067       7       0       0      -1      21      5.02504911      3.86422923      0.88996078
 N               6.36585955      7.62551288     15.43627419       7      -1       0      -1      20      0.35512791      0.93710990      0.13350060
 N               8.76813238      8.07262031     15.24609734       7      -1       0      -1      23      7.11159843     -2.57955469     -1.35424492
 N              11.38552165      7.72913056     15.01819477       7      -1       0      -1      24     -2.32074219      4.35764600     -1.01583609
 N              13.71596997      8.18631876     14.84393335       7      -1       0       0      22      3.02663967     -8.03120187     -1.37958734
 N              -5.01414146     10.31325549     14.97979856       7       0      -1       0      23     -1.63791754     -1.84039290      0.57713392
 N              -2.49497654      9.40516126     14.96190907       7       0      -1       0      22     -0.87152621     -2.54433602      0.68255295
 N              -0.00409514     10.04174381     14.93641808       7       0      -1       0      22     -2.90086884     -0.32579647      0.26325495
 N               2.34757176     10.40450559     14.88779996       7       0      -1       0      22      3.01527810     -6.32438253      0.65639008
 N               7.94900634     10.33167346     15.58946123       7      -1      -1      -1      20     -6.00202477     -3.57480500      2.01784905
 N              10.26245130     10.31501095     15.05902007       7      -1      -1      -1      23     -1.77323640     -2.68743876     -1.11439226
 N              12.65067877     10.05451003     15.13953280       7      -1      -1      -1      23      0.07938251      4.73072289      0.01911519
 N              -6.35033048     12.29975526     14.81592711       7       0      -1       0      22      1.02810464      2.97890585      1.58818290
 N              -3.87721341     12.44984406     15.05083778       7       0      -1      -1      22      0.04329362      0.75296235      1.30911362
 N              -1.40387123     12.47046089     14.78869977       7       0      -1       0      22      1.38346068     -1.39441651      0.81080213
 N               1.10796648     12.43047961     14.86157048       7       0      -1       0      21     -3.04685405      4.01454305     -0.16352644
 N               3.36116742     12.42075685     14.94205868       7      -1      -1       0      21     12.48221776      5.83087219      1.17526552
 N               6.29891128     12.41345997     15.42064289       7      -1      -1      -1      23     -3.29043460     -6.77414099     -1.11997879
 N               8.49799059     12.51027205     15.08016949       7      -1      -1      -1      22      7.63810544      0.07147954     -3.53482145
 N              11.03470166     12.20835675     15.04296803       7      -1      -1      -1      22      9.17612191      3.87665595     -0.44940912
 N              -7.43041116     13.48958094     14.66161149       7       0      -1       0      23     -1.47329258     -4.84635968      0.04716983
 N              -4.85671623     14.60212543     14.96578454       7       0      -1       0      23     -3.05389078     -3.57471025      1.03795833
 N              -2.56028040     14.54700647     14.97852901       7       0      -1       0      23      2.79634971     -3.50683504      0.52419037
 N               0.15905543     14.73608620     15.13971352       7       0      -1      -1      22     -1.03214248     -6.66723018     -0.28090344
 N               2.76645187     14.50512952     14.94740323       7      -1      -1       0      21     -1.79487530      2.75335572      0.83028751
 N               5.21034955     14.45104451     15.13760779       7      -1      -1      -1      20     -4.38375908      2.87661087     -1.08568093
 N               7.89275185     14.68484379     15.25313299       7      -1      -1      -1      22     -4.98918045      2.11317967     -2.03628018
 N              10.07497870     14.65208470     14.85738921       7      -1      -1       0      24      6.25513098     -0.51407365     -2.21978805
 N              -8.86067555     16.64706215     14.96373213       7       0      -1       0      24     -4.87068253      5.87529418     -1.80748506
 N              -6.25523528     16.90713358     14.94464525       7       0      -1       0      23      0.72127762      1.70457909      1.82205153
 N              -3.36717535     16.59683336     15.16135774       7       0      -1      -1      23     -3.91416183     -2.43250785      0.76128691
 N              -1.16625895     16.79187514     14.85420475       7       0      -1       0      23     -3.98324121     -0.94921987     -1.07322734
 N               0.94049284     16.47354568     14.99643271       7      -1      -1       0      23      9.85122851      3.72474591      0.41571713
 N               3.78777419     16.77413421     14.95959121       7      -1      -1       0      23     -1.42739885     -9.17910854      2.14190842
 N               6.37592137     16.46052502     15.05364627       7      -1      -1      -1      23      1.34055796      2.34021028     -0.94043011
 N               8.87595294     17.01049539     15.05351387       7      -1      -1      -1      21      4.87609399     -6.15215873     -4.31841052
 B               1.36368399      0.68683622     14.94894773       5       0       0       0      22      1.49540147      4.81992869      0.28761352
 B               3.61708021      1.05469487     14.96991335       5       0       0       0      21      4.04156476     -7.42832013     -0.08145859
 B               6.34519548      0.57186627     15.04367030       5       0       0      -1      22      2.92451477      0.05902050     -0.96921279
 B               9.10540356      0.72941935     15.02191193       5       0       0      -1      23     -1.67197470      5.86926551     -1.20229854
 B              11.24099859      0.65323317     14.98317287       5      -1       0       0      24     -2.20111935      2.13919157      1.01074535
 B              13.45274212      0.65102778     15.20896125       5      -1       0      -1      24     -0.31987975      8.87985200     -1.08023745
 B              16.60053229      0.44953331     14.89338279       5      -1       0       0      20     -1.40298544      6.07957446      1.81308648
 B              18.87017078      1.05539936     14.84904515       5      -1       0       0      22      6.20288994     -8.47804964      1.55510549
 B               0.00543585      2.65083971     14.94553464       5       0       0       0      25      0.69042670     -0.99525296      1.06820976
 B               2.37360990      3.39072984     14.94343869       5       0       0       0      24     -1.23570949     -7.33360860     -1.31266056
 B               4.91655458      2.64628335     14.85062099       5       0       0       0      22      0.27648650     -2.16243412     -0.28788171
 B               7.54846657      2.89590414     14.95548404       5       0       0       0      24      0.56516386     -2.39421053     -1.91282263
 B              10.15641244      3.08120433     15.23765069       5      -1       0      -1      23     -7.05908740     -3.69126984     -2.64564390
 B              12.59107219      2.97068284     15.28970210       5      -1       0      -1      23     -0.06711890     -5.39549157     -3.66970197
 B              14.99736446      2.90482925     14.94686353       5      -1       0       0      24      2.19200128     -0.62113967      1.86760645
 B              17.68276753      3.04577988     15.24531038       5      -1       0      -1      23     -2.48921504     -1.81012176     -2.95249231
 B              -1.34064884      4.77588333     14.89531837       5       0       0       0      23     -1.00229103      1.06409979     -0.34341552
 B               1.00720125      5.20465300     14.96255698       5       0       0       0      23     -2.55226213     -5.75738128     -0.93773443
 B               3.73102358      4.98583356     14.87592648       5       0       0       0      23     -2.28251239      3.91078623     -1.30374876
 B               6.09885862      4.84916490     14.78193638       5       0       0       0      22      6.88405120      2.46027010     -0.31503465
 B               8.77429640      5.01258182     14.94718195       5      -1       0       0      23     -2.27137992     -2.38614966     -0.61269651
 B              11.22613372      5.00236152     14.99471361       5      -1       0       0      23     -1.21008552      1.78917629     -0.08024246
 B              13.81652201      4.82426935     14.74039572       5      -1       0       0      22     -0.74488575      3.38381721      3.13216829
 B              16.29338926      5.28568009     14.90686356       5      -1       0       0      23      8.02955695     -5.06737483      1.74708826
 B              -2.31394991      7.18008203     14.98535672       5       0       0       0      21     -7.76415068      1.92268274     -0.52527323
 B               0.14276412      6.96509790     14.99681486       5       0       0       0      23      0.13126879      1.68489840     -1.69956383
 B               2.60213051      7.27307213     15.00063129       5       0       0      -1      21     -4.21803020     -3.48316472     -1.39163735
 B               5.02744003      7.12335584     15.15468561       5       0       0      -1      22      1.36448832     -2.84725949     -0.28439803
 B               7.80781686      7.17860934     15.06587317       5      -1       0      -1      22    -10.21601587     -5.23998238      0.64634753
 B              10.04547969      7.25803202     15.02490875       5      -1       0      -1      22      1.06067738     -2.73621218      1.35176293
 B              12.55913477      6.98316206     14.75306816       5      -1       0       0      23      0.75131162      3.75554368      2.63813669
 B              15.09244341      7.34745524     14.86080139       5      -1       0       0      23     -1.25661846      2.07329127      0.88213045
 B              -3.83712951      9.45660253     15.08753123       5       0      -1      -1      23     -1.63700063     -3.02931667     -1.60380701
 B              -1.22768663      9.07404020     15.07131079       5       0      -1      -1      22      2.65203890     -1.26457755     -2.12822925
 B               1.28480441      9.50819848     14.80039489       5       0      -1       0      22     -0.62923838     -0.98790164      1.33907574
 B               3.45910004      9.26528593     15.29192024       5       0      -1      -1      20      0.39527972      2.96049039     -1.51985730
 B               8.90080469      9.44874450     15.20667287       5      -1      -1      -1      21      6.38830035      5.26973287     -0.04660880
 B              11.51258498      9.55563167     15.00610795       5      -1      -1      -1      23     -6.10261802     -5.93753589     -0.02646915
 B              13.77891083      9.49660240     14.95477142       5      -1      -1       0      22      6.04590415      0.78785820     -0.09092944
 B              -5.05284838     11.72810090     15.03340228       5       0      -1      -1      23     -5.03594573     -1.71693639     -0.96874096
 B              -2.72462441     11.96522421     14.91383793       5       0      -1       0      20     11.00938807     -7.87216086     -0.47676040
 B              -0.23319802     11.49363263     14.89355596       5       0      -1       0      22      5.24529065      3.47385962     -0.62261047
 B               2.31737188     11.84901242     14.86049933       5       0      -1       0      20     -7.12892023     -6.65486974     -0.05213719
 B               4.69542730     11.66796492     15.14318262       5      -1      -1      -1      21     -2.45603915      1.42121410      1.43735221
 B               7.48970341     11.57877805     15.25690250       5      -1      -1      -1      21      1.11914955      5.13129620      0.73064306
 B               9.87214401     11.74256373     14.95500661       5      -1      -1       0      22     -3.29576932     -2.91572698      1.16124983
 B              12.49780813     11.59573581     14.86643402       5      -1      -1       0      22     -3.00503769      6.66149054      1.31090139
 B              -6.11756154     13.80228972     14.96278105       5       0      -1       0      21     -6.38884001      0.86041760     -1.53973935
 B              -3.74150417     13.79944758     15.11544246       5       0      -1      -1      22      0.29540135      4.43126963     -1.06942937
 B              -1.29539167     13.79288752     15.04671125       5       0      -1      -1      22      3.48097900      6.50908558     -0.71254870
 B               1.48581502     14.08187843     14.88514430       5       0      -1       0      23     -7.41266744     -6.36011311      1.18512654
 B               3.88373268     13.83002636     15.04903784       5      -1      -1      -1      20      2.67873426     -2.08990696     -0.35435376
 B               6.44591862     13.66318224     15.07655811       5      -1      -1      -1      22      2.68112586      7.70463922      1.85451561
 B               8.94839319     13.95506083     14.84262129       5      -1      -1       0      22     -6.15506273     -1.65776772      2.64784373
 B              11.31153081     13.63891088     14.91888151       5      -1      -1       0      24     -2.22376660     -0.10336469     -0.31005111
 B              -7.62847061     16.55254872     15.11809734       5       0      -1      -1      23      7.26956217     -8.34822489     -0.70083474
 B              -5.00715790     15.94012764     15.12908391       5       0      -1      -1      23      4.17644110      6.95275878     -1.32932039
 B              -2.27405633     15.85290393     14.91645669       5       0      -1       0      23     -0.16849252      7.85109196      0.58556538
 B              -0.23315073     15.97219857     14.99877699       5       0      -1       0      22      2.20394653     -2.57452876      0.44193999
 B               2.43205565     15.87457112     15.19233609       5      -1      -1      -1      22     -0.26669321      1.47040450     -3.27684590
 B               5.07685962     15.94687721     15.05940282       5      -1      -1      -1      23     -2.46204670     -3.38446247     -0.21422519
 B               7.76653191     16.24349954     15.00560809       5      -1      -1      -1      21      1.23857981     -7.04608820      1.66539759
 B              10.03400193     16.02702393     14.60469351       5      -1      -1       0      23     -3.50903802      1.60467594      4.93936653
