 128
 energy=-579.45098114799498 cutoff=4.00000000 nneightol=1.20000000 pbc="T T T" Lattice="20.07638462       0.00000000       0.00000000     -10.03819231      17.38665923       0.00000000       0.00000000       0.00000000      30.00000000" Properties=species:S:1:pos:R:3:Z:I:1:map_shift:I:3:n_neighb:I:1:force:R:3
 Ti              6.35747558      9.45025343     16.40849427      22      -1      -1      -1      20     -0.51237898     -0.67880312     -0.41767190
 N               4.84980464      9.95138033     15.51059076       7      -1      -1      -1      22     -3.16905028      3.29887930     -0.59367049
 N               0.11930406      1.17636529     15.18445375       7       0       0      -1      23      6.59132624      3.67614740      0.01113023
 N               2.50955321      1.78936221     14.90886276       7       0       0       0      22     -4.13469923     -0.17129246      0.86437558
 N               4.90392608      1.03984049     14.96413250       7       0       0       0      21      3.27483050      3.64149807     -0.10025033
 N               7.76085594      1.49134999     14.85567208       7       0       0       0      24     -0.73507008     -2.37324540      1.55150755
 N              10.28826565      1.59767619     15.03679274       7      -1       0      -1      25     -1.56195543      0.91324813     -0.22951245
 N              12.28309421      1.67076682     15.28867889       7      -1       0      -1      22      0.79278445     -6.34917723     -0.33809331
 N              14.23972914      1.74826985     14.96668812       7      -1       0       0      23     -3.83848451      2.64305907     -1.13627295
 N              17.70320659      1.69949868     14.87132775       7      -1       0       0      24     -3.00682317     -5.59765427      0.65690365
 N              -1.08558020      3.37124181     14.91029779       7       0       0       0      22     -2.19113458      0.66032515      1.25608840
 N               1.09190610      3.61478201     14.94380299       7       0       0       0      23     -4.98364768      6.06947391     -0.50575317
 N               3.80788934      3.58782673     14.81961306       7       0       0       0      23     -1.38968502      1.78090770      0.76068511
 N               6.13789609      3.49529297     14.74240168       7       0       0       0      23      3.34802825     -5.24506699      1.00871141
 N               8.73292973      3.57833695     14.97294209       7      -1       0       0      22      4.40651825      2.92106501      0.09391386
 N              11.23114983      3.68790135     15.02761794       7      -1       0      -1      23      3.67220007      4.82002380      0.33184159
 N              13.81573272      3.56799514     15.04505113       7      -1       0      -1      22     -0.57734710     -6.49671681      0.45117484
 N              16.31057946      3.63337307     15.10664978       7      -1       0      -1      22      1.53761687     -1.12250837     -0.21710644
 N              -2.20788053      5.74163581     14.99915519       7       0       0       0      23     -5.89786010      0.00941753     -0.54316891
 N              -0.51105008      5.69058242     14.96825311       7       0       0       0      23      6.44601203      1.52176916     -0.14495213
 N               2.24805596      5.74563307     14.87642836       7       0       0       0      23      5.29619813     -0.89998483      0.45222112
 N               5.04580692      5.69519410     14.80225815       7       0       0       0      23     -5.34686484     -1.75367271      0.16367244
 N               7.57314407      5.74162614     14.80437628       7      -1       0       0      23     -0.63643260     -1.17024517      0.04648404
 N               9.97920965      5.70870540     15.11312415       7      -1       0      -1      22      0.88956694      2.74420285     -1.11127083
 N              12.40612295      5.55625456     14.88707995       7      -1       0       0      24      8.06852495      1.12583046     -0.50933275
 N              14.94841201      5.75783289     14.94024811       7      -1       0       0      22      3.24931740      1.81528895     -0.75226441
 N              -3.63328961      7.91311996     14.96175278       7       0       0       0      22     -2.50299422      1.57884001      0.01089483
 N              -1.08978893      7.69402833     14.89429284       7       0       0       0      21      2.37827164     -3.71562718      0.23011748
 N               1.54461110      7.94503935     14.93812654       7       0       0       0      23    -12.75121130      7.37892806     -0.59831352
 N               3.67364542      7.80562485     15.24244193       7       0       0      -1      21      7.69704429      2.33603982      0.83906708
 N               6.29744166      7.66228164     15.42190446       7      -1       0      -1      20      2.01247175      0.70861534      0.57739995
 N               8.73895786      8.10050836     15.16234979       7      -1       0      -1      23      8.72005360     -4.10334864     -0.14157292
 N              11.37371297      7.69500776     14.96564823       7      -1       0       0      23     -4.46139436      6.58128177      0.47419870
 N              13.70532188      8.22710921     14.84458388       7      -1       0       0      21      2.70636278     -4.24132979     -0.26395965
 N              -5.02839491     10.27335766     15.00491008       7       0      -1      -1      23     -2.07312396      2.90242225     -0.08274483
 N              -2.50602595      9.53145147     14.99793164       7       0      -1       0      22     -1.18322558     -1.83231781      0.62491664
 N               0.01034842      9.95092508     14.92788923       7       0      -1       0      22     -2.43195215      3.37407686      0.60662193
 N               2.47618154     10.33111383     14.86360202       7       0      -1       0      22     -1.60011071     -2.71823236      1.25174805
 N               7.85863859     10.31098429     15.57931582       7      -1      -1      -1      20     -3.84425043     -3.12254060      1.08193263
 N              10.26605766     10.33919792     15.02900282       7      -1      -1      -1      22     -0.46257670     -5.56997825     -0.19074029
 N              12.66186121     10.09584071     15.14795055       7      -1      -1      -1      22      2.43156388      3.21230466      0.00875300
 N              -6.44287921     12.25131415     14.80607508       7       0      -1       0      20      4.34269903      2.08439482      2.11069196
 N              -3.83177811     12.44636162     15.04608473       7       0      -1      -1      21     -3.12884161      0.49013183      1.20739391
 N              -1.42734016     12.43174648     14.81070045       7       0      -1       0      22      2.81970390      3.57665327      1.01145339
 N               1.10576398     12.48596614     14.84141247       7       0      -1       0      20     -4.15994673      3.22721680      0.34001577
 N               3.42739517     12.43301988     14.92212357       7      -1      -1       0      21      5.88517927      1.12705865      1.10071188
 N               6.21563488     12.36046887     15.38373175       7      -1      -1      -1      22     -1.90575543     -5.50967179     -1.44258330
 N               8.54474911     12.51908432     15.04640820       7      -1      -1      -1      22      3.96732863     -1.75429762     -1.69630748
 N              11.07761423     12.21630548     15.03120781       7      -1      -1      -1      21      7.21750495      2.61380830     -0.50401152
 N              -7.41492159     13.63427356     14.70866179       7       0      -1       0      23     -2.02051441     -2.54042369     -1.06908814
 N              -4.87322905     14.62976422     14.99387161       7       0      -1       0      22     -3.19561190     -5.85071170      0.64956067
 N              -2.53750260     14.51592589     15.01721671       7       0      -1      -1      22      1.72256346     -2.37498045     -0.33957366
 N               0.12902946     14.64818268     15.13041119       7       0      -1      -1      22     -1.45141059     -3.52446848     -0.89687215
 N               2.79300257     14.55406368     14.96888020       7      -1      -1       0      21     -6.19414601      0.68151135     -0.17058215
 N               5.19949506     14.38338466     15.12238838       7      -1      -1      -1      21     -3.54845851      5.12666175     -0.86865384
 N               7.95635126     14.76210934     15.11689726       7      -1      -1      -1      23    -11.33781280     -0.94900286      1.46901922
 N              10.10629974     14.55143038     14.84453192       7      -1      -1       0      24      4.17855553      3.16503691     -1.88852182
 N              -8.94927829     16.59077073     14.94522198       7       0      -1       0      23      3.41959726      9.57752470     -0.22382367
 N              -6.24354236     16.93937692     14.91852478       7       0      -1       0      23     -0.89089093     -2.50808458      2.12462645
 N              -3.28827157     16.60562413     15.16577567       7       0      -1      -1      23     -7.04463739     -0.50526904      0.75979293
 N              -1.19599909     16.75126968     14.89239650       7       0      -1       0      23     -5.18706233      1.99150855     -1.06072177
 N               0.86782139     16.46026583     15.03204016       7      -1      -1      -1      23     13.91102642      6.47052769      0.12445238
 N               3.76212374     16.76385414     14.99991169       7      -1      -1       0      22     -2.21392724     -8.14948670      0.79795807
 N               6.36267135     16.44459961     14.98886460       7      -1      -1       0      23      1.66997496      1.09558298      0.24008181
 N               8.78701091     17.05198282     15.01303332       7      -1      -1      -1      21      5.38920026     -8.00347859     -2.61983950
 B               1.40328429      0.65691816     14.98347214       5       0       0       0      22     -0.27889111      4.51315435     -0.52366291
 B               3.57772175      0.90653655     15.00102777       5       0       0      -1      21      1.74132528      2.75151197     -0.68943680
 B               6.31600415      0.53273599     14.93882721       5       0       0       0      22      2.38188443      1.85544871      0.63334801
 B               9.10391323      0.73312247     15.12347787       5       0       0      -1      23     -2.73359750      3.71131633     -2.56000450
 B              11.26283927      0.71932744     14.87107047       5      -1       0       0      24      0.22031059     -2.47865586      2.70141687
 B              13.45221320      0.66323206     15.06589039       5      -1       0      -1      24     -1.21391394      8.31746762      1.02035373
 B              16.56772987      0.48021252     15.01058210       5      -1       0      -1      21      3.64478079      2.15859192     -0.29151885
 B              18.96198284      1.08687150     14.95835902       5      -1       0       0      22     -5.16195699     -5.96625211     -0.47204545
 B               0.08404231      2.64428447     14.85976066       5       0       0       0      24     -2.16898829     -1.25871309      1.71192157
 B               2.33220033      3.46260526     14.95040622       5       0       0       0      24      8.45458360     -9.58669903     -1.01089069
 B               4.98185230      2.60696095     14.83627525       5       0       0       0      23     -2.78421508     -0.67566427      0.22363656
 B               7.53826161      2.92093420     14.95930296       5       0       0       0      24     -0.76385734     -2.55900721     -1.78900809
 B              10.18550635      3.08206332     15.05006537       5      -1       0      -1      24     -7.68261262     -5.41622717     -0.20205626
 B              12.53615228      2.95182514     15.20542543       5      -1       0      -1      22      2.09397726     -1.68741044     -2.01946427
 B              15.07198242      2.83340451     14.88479784       5      -1       0       0      24     -0.62958177      3.25108293      2.45087273
 B              17.63575499      2.93324520     15.31885529       5      -1       0      -1      23      0.56697099      5.58476161     -3.84083648
 B              -1.36713890      4.74958180     14.90761816       5       0       0       0      23     -1.96713940      3.48220605     -0.52599270
 B               1.03593057      5.19509424     14.84509077       5       0       0       0      23     -4.91398436     -3.27636451      1.12717203
 B               3.67371551      5.00201045     14.88490314       5       0       0       0      23     -0.64563674      1.59890311     -1.03256927
 B               6.14530503      4.85043595     14.81628648       5       0       0       0      22      3.67204816      4.84011610     -0.44630923
 B               8.73669671      4.99547579     14.82277487       5      -1       0       0      24      1.27696052     -0.16008208      1.85001254
 B              11.27965077      5.06618741     14.98103001       5      -1       0       0      24     -7.50937789     -2.86336206      0.77694361
 B              13.85511362      4.78305346     14.91218316       5      -1       0       0      22     -2.44502994      8.75124689     -0.13099960
 B              16.35255141      5.28823841     14.88139689       5      -1       0       0      23      3.78503174     -3.85102013      2.22518216
 B              -2.36572112      7.17961835     14.92075592       5       0       0       0      21     -0.10959550      1.56765112      0.71804423
 B               0.15084704      6.92212622     14.99267190       5       0       0       0      23      1.11171623      3.48306387     -1.15214404
 B               2.53848603      7.39860173     14.96250931       5       0       0       0      22      2.93077079     -9.72569173     -0.68005378
 B               5.05712203      7.07398197     15.06625145       5       0       0      -1      22     -2.31462328      1.35819579      1.42029996
 B               7.84535536      7.15100110     15.17770473       5      -1       0      -1      22    -10.48813729     -3.79126674     -0.61092200
 B              10.14609195      7.22262664     15.07511891       5      -1       0      -1      22     -4.37793083     -2.90408171      0.01734095
 B              12.41801909      6.99922522     14.88312275       5      -1       0       0      23      8.61383898      0.66044016     -0.19623035
 B              15.14694211      7.29962386     14.96457396       5      -1       0       0      24     -3.92054580      2.36728782     -0.99632526
 B              -3.93258061      9.48394071     15.02048469       5       0      -1      -1      23      5.08177054     -5.57768048     -0.40120570
 B              -1.17478449      9.03070884     15.06569206       5       0      -1      -1      23     -1.30842646      3.37049938     -1.48967969
 B               1.29103003      9.59048232     14.76073179       5       0      -1       0      22      2.00148281     -4.75702625      1.77784064
 B               3.45629649      9.26717901     15.33973743       5       0      -1      -1      20      1.69678435      1.89834797     -2.43836622
 B               8.87969641      9.40888975     15.27415607       5      -1      -1      -1      22      5.34567684      7.34214791     -1.08013152
 B              11.58872381      9.59297580     15.04376707       5      -1      -1      -1      23     -9.05870838     -5.93263350     -0.78005617
 B              13.83100543      9.58945444     14.82317083       5      -1      -1       0      23      2.07291177     -3.30620550      1.35044135
 B              -4.97971027     11.72723459     15.12846032       5       0      -1      -1      23     -8.47572909     -2.19821255     -2.53303050
 B              -2.70209804     11.94572179     14.86729394       5       0      -1       0      20      9.12570233     -7.55989486     -0.17767893
 B              -0.23226138     11.56778435     14.95256910       5       0      -1       0      22      3.33064494      0.10211813     -1.59291495
 B               2.22900797     11.80872444     14.98276580       5       0      -1       0      22      2.96527274     -3.98038886     -1.08394089
 B               4.78881261     11.62042270     15.12332329       5      -1      -1      -1      21     -1.37565633      1.75073307      2.01268945
 B               7.44072161     11.57083048     15.22103855       5      -1      -1      -1      21      2.40581268      6.00305911      0.83868451
 B               9.94373447     11.66790254     14.89339510       5      -1      -1       0      24     -5.87083064      2.30413214      1.51669864
 B              12.36604439     11.54933024     14.83384670       5      -1      -1       0      21      1.03789134      5.27805707      2.28257570
 B              -6.17177073     13.76005985     14.99925585       5       0      -1       0      22     -0.88551627      0.82478888     -0.94949365
 B              -3.73173419     13.77872770     15.03999595       5       0      -1      -1      22     -0.47640721      6.44394635     -0.22166084
 B              -1.21035941     13.90448909     15.05303410       5       0      -1      -1      22      1.57118780     -0.25501690     -0.93632718
 B               1.43801370     14.03989768     14.83936562       5       0      -1       0      24     -3.37468264     -3.42530248      1.95703736
 B               3.82940439     13.84190017     15.03198940       5      -1      -1      -1      20      6.25840418     -4.19994783     -0.04823101
 B               6.49046964     13.68946193     15.19596750       5      -1      -1      -1      22      2.36588549      4.10409711     -0.47516694
 B               8.88574846     13.98236179     14.97314553       5      -1      -1       0      22      1.20157392     -5.33425623     -0.17539617
 B              11.34960284     13.64358522     14.92344570       5      -1      -1       0      24     -3.59183767     -0.09162680     -0.06840039
 B              -7.66637458     16.56384762     15.21775611       5       0      -1      -1      22      6.26588089     -8.31298836     -1.75633920
 B              -5.00872563     15.96209111     15.07549048       5       0      -1      -1      23      2.61119293      5.97759104     -0.58278139
 B              -2.33535878     15.85556374     14.87326318       5       0      -1       0      23      2.82895029      4.08874372      0.36984950
 B              -0.22827147     16.01301750     14.95965983       5       0      -1       0      23      1.24466895     -6.86156073      0.67157941
 B               2.43906407     15.82653066     15.21044226       5      -1      -1      -1      21     -1.38813058      4.46702675     -2.69798318
 B               5.00513751     15.96174997     14.95996939       5      -1      -1       0      23      0.41726742     -3.78926931      1.32631164
 B               7.78153694     16.10612072     15.16075631       5      -1      -1      -1      20     -0.81173716      1.74341582     -1.46755291
 B              10.01330839     16.02222336     14.59739758       5      -1      -1       0      23     -8.06662027     -2.27828740      4.51366653
