 128
 energy=-650.15783358286626 cutoff=4.00000000 nneightol=1.20000000 pbc="T T T" Lattice="20.07638462       0.00000000       0.00000000     -10.03819231      17.38665923       0.00000000       0.00000000       0.00000000      30.00000000" Properties=species:S:1:pos:R:3:Z:I:1:map_shift:I:3:n_neighb:I:1:force:R:3
 Ti              6.29527919      9.41369908     16.35511283      22      -1      -1      -1      19      0.13369614      0.21082162      0.18129654
 N               4.86065763     10.21875068     15.43365327       7      -1      -1      -1      21      0.42626576     -0.39222895      0.28441211
 N               0.01186590      1.45474355     14.98019194       7       0       0       0      24     -0.88427066     -0.57362944      0.13808076
 N               2.49744841      1.43824297     14.99462319       7       0       0       0      24      1.59762410     -1.31247051      0.02973562
 N               5.02422634      1.43489295     14.95727673       7       0       0       0      24      0.12792868      0.85001570      0.05283190
 N               7.51924474      1.42864382     14.99445345       7       0       0       0      24      0.71346212      0.67060540     -0.26540092
 N              10.04514110      1.44254987     15.04033797       7      -1       0      -1      24     -0.35368191     -0.24382368     -0.10444888
 N              12.55546347      1.45244124     14.99331174       7      -1       0       0      24      0.06697800      0.86658418      0.11577110
 N              15.04657703      1.47733530     15.01400046       7      -1       0      -1      24      1.56524034     -0.42029172      0.00350167
 N              17.56786817      1.44846205     14.99393749       7      -1       0       0      24      0.72401337      0.53389934     -0.00458307
 N              -1.28985144      3.63065586     14.98732450       7       0       0       0      24      1.86786384      0.54287696     -0.07461870
 N               1.25840755      3.62002910     14.96647652       7       0       0       0      24      0.27174114     -1.24154719     -0.03860879
 N               3.77704687      3.60172990     14.88760998       7       0       0       0      24     -0.68129298     -0.68917001      0.00417191
 N               6.29983432      3.59964889     14.90292178       7       0       0       0      24     -0.80478618      0.66314602     -0.18701859
 N               8.80736587      3.62453648     14.90799154       7      -1       0       0      24     -1.10811984     -0.61424958      0.11542281
 N              11.29970108      3.64102172     15.07884120       7      -1       0      -1      24     -0.14040342     -0.81351676     -0.33784137
 N              13.79869973      3.63019877     15.00478104       7      -1       0      -1      24      0.46438460      1.33561657     -0.01953013
 N              16.32204057      3.63203900     15.03123753       7      -1       0      -1      24     -0.71834849     -0.56815901      0.03907341
 N              -2.51970686      5.82258278     14.97341998       7       0       0       0      24      0.73767288     -0.57651306      0.08349026
 N               0.01056987      5.78793433     14.94249956       7       0       0       0      24     -0.36896091      0.99677649      0.03555255
 N               2.53944595      5.79055319     14.97189489       7       0       0       0      24     -1.46914357     -0.91035060     -0.13220467
 N               5.00214074      5.73831613     14.90545642       7       0       0       0      23      1.07809490      1.49384301      0.16465774
 N               7.54876710      5.76423163     14.87845716       7      -1       0       0      24      0.11203846      0.86011180      0.17704132
 N              10.03820291      5.79035817     14.97315434       7      -1       0       0      24      0.53889287      0.90963830      0.09724622
 N              12.55600651      5.80937210     14.93338932       7      -1       0       0      24     -1.03034354     -0.06620917      0.11650405
 N              15.05519453      5.82500717     15.01647424       7      -1       0      -1      24      0.47842583     -1.20286216     -0.13976353
 N              -3.78484445      7.98765221     15.00833578       7       0       0      -1      24      0.61314014     -0.33733210     -0.08141781
 N              -1.27860162      7.96045459     14.94887865       7       0       0       0      24      0.26262390      1.48208502      0.01348901
 N               1.20452094      7.98156844     15.00929613       7       0       0      -1      24      2.45905880     -1.83201425     -0.16352051
 N               3.76549665      7.95650627     15.04752082       7       0       0      -1      23     -0.77231813      0.35271953      0.23310739
 N               6.26258631      7.77484530     15.46332453       7      -1       0      -1      23     -0.80951109      0.35699408     -0.11468853
 N               8.80030783      7.95493420     15.12809405       7      -1       0      -1      23     -2.53140784      0.92128968      0.18102721
 N              11.27412661      8.00232915     14.98938500       7      -1       0       0      24      0.71934769     -2.06640416     -0.10592273
 N              13.82219976      7.97134420     14.92780905       7      -1       0       0      24     -2.42715057      0.05912759      0.08195311
 N              -5.03048345     10.14536865     14.99115324       7       0      -1       0      24      0.19752135     -0.72078303      0.04332619
 N              -2.52982062     10.18434095     15.02997993       7       0      -1      -1      24      0.67791638     -2.84371644     -0.13958247
 N              -0.01416341     10.11540501     14.90882852       7       0      -1       0      24     -0.43398318      1.43964460      0.15999059
 N               2.47737714     10.12961673     14.89177424       7       0      -1       0      24      0.56932440     -0.16814617      0.19023951
 N               7.65948634     10.22790858     15.42496876       7      -1      -1      -1      23      0.07705026      0.23816740     -0.03266946
 N              10.06051468     10.14006407     14.98766491       7      -1      -1       0      24      0.74953323      1.16855906     -0.13231890
 N              12.57000286     10.15206359     14.95798085       7      -1      -1       0      24     -0.73472158     -0.47437395      0.06205762
 N              -6.26069714     12.30014251     15.03719030       7       0      -1      -1      24     -0.24553523      0.82111143     -0.21826422
 N              -3.75692856     12.30800522     14.97447244       7       0      -1       0      24     -0.24022216     -0.40627362      0.19199859
 N              -1.22760632     12.35441871     15.01353715       7       0      -1      -1      24     -1.39597978     -2.70452500     -0.16412638
 N               1.23661909     12.31176984     14.91952541       7       0      -1       0      24      1.69498667      0.24509250     -0.03586870
 N               3.78802325     12.33337658     15.00556269       7      -1      -1      -1      24     -2.41899527      0.74296942     -0.38908306
 N               6.29262000     12.30072577     15.15774492       7      -1      -1      -1      23     -1.35085881      1.27571920      0.06121599
 N               8.82886299     12.34435049     14.92612480       7      -1      -1       0      23     -0.48819888      0.28006043      0.22384621
 N              11.30841536     12.32162369     14.91405015       7      -1      -1       0      24      1.44339804      0.16527472      0.06645621
 N              -7.53240217     14.47521693     14.90600016       7       0      -1       0      24      0.51346574      0.91465064      0.37118812
 N              -5.03707021     14.47442168     15.06920052       7       0      -1      -1      24      0.65198083     -0.14157987     -0.18276721
 N              -2.52719130     14.48854262     14.97479082       7       0      -1       0      24      0.02799828     -0.72833693      0.01327781
 N              -0.00806102     14.47941320     14.94655631       7       0      -1       0      24     -0.22655651      0.39034980      0.19283075
 N               2.45969554     14.49103847     14.96469620       7      -1      -1       0      24      2.28996666      1.05855579      0.01225339
 N               5.01796419     14.50126610     14.98436823       7      -1      -1       0      24     -1.76690649     -0.05312877      0.13194107
 N               7.51299443     14.48659974     15.01063290       7      -1      -1      -1      24      0.30661023      0.30075702     -0.16470918
 N              10.02935774     14.49085419     14.89783277       7      -1      -1       0      24      1.48930635     -0.09729063      0.10346246
 N              -8.78045287     16.69959478     15.02354986       7       0      -1      -1      24     -0.19269714     -2.60963934     -0.10933355
 N              -6.26368575     16.64017141     15.07931581       7       0      -1      -1      24      0.27236882      0.99161724     -0.29824679
 N              -3.79884128     16.65447597     14.95762158       7       0      -1       0      24      1.95882922      0.16139783      0.18468727
 N              -1.28515297     16.65037736     15.01731940       7       0      -1      -1      24      1.15451849     -0.14721641     -0.13777655
 N               1.28286425     16.69524866     15.08781084       7      -1      -1      -1      24     -1.78278443     -1.68159604     -0.33818926
 N               3.76396176     16.66406675     14.98679564       7      -1      -1       0      24      0.57342133      0.89981355      0.06110238
 N               6.31924069     16.64056591     15.03103076       7      -1      -1      -1      24     -2.94797495      1.66346719     -0.01825365
 N               8.78199714     16.64170995     14.97969856       7      -1      -1       0      24      0.66214182      0.34956023      0.16213670
 B               1.26191069      0.71774740     15.01406316       5       0       0      -1      24     -0.80896671      0.93092497     -0.09890446
 B               3.78721255      0.72110007     15.01232221       5       0       0      -1      24     -0.80953772     -0.75726312      0.03833004
 B               6.28557108      0.72768235     14.97353544       5       0       0       0      24     -1.03608265     -0.89332287     -0.05067724
 B               8.76983519      0.71330286     14.99817447       5       0       0       0      24      0.77031275     -0.06811888      0.33949203
 B              11.31801769      0.71221829     15.04433555       5      -1       0      -1      24     -0.80189003      1.65412492      0.03882009
 B              13.81508049      0.77070798     14.99317254       5      -1       0       0      24     -0.30954296     -1.69749059      0.06166841
 B              16.34621368      0.72726584     15.00825433       5      -1       0      -1      24     -1.55885412     -0.18911828      0.10853073
 B              18.81958615      0.69645017     14.98305768       5      -1       0       0      24      0.58543532      0.97936247      0.03980699
 B              -0.01066549      2.89933083     14.98774607       5       0       0       0      24      0.01657891      0.21423337     -0.14892930
 B               2.53606394      2.82653575     14.93972455       5       0       0       0      24     -1.10005958      3.07111268      0.07092028
 B               5.01721194      2.90250328     14.91263665       5       0       0       0      24      0.94060217     -0.69661441      0.00213239
 B               7.53098224      2.87644586     14.92226370       5       0       0       0      24      0.72781977      0.46688669      0.12304495
 B              10.02409067      2.89571091     15.02100535       5      -1       0      -1      24      1.38432014     -0.20074358     -0.06016836
 B              12.57229902      2.91908805     15.01900878       5      -1       0      -1      24     -1.39600373     -0.66231782      0.13444739
 B              15.04359681      2.92896499     15.03012019       5      -1       0      -1      24      0.65872759     -0.62033157     -0.16326068
 B              17.56893958      2.92757820     15.00223713       5      -1       0      -1      24     -0.46225146     -1.58708162      0.03815305
 B              -1.24829149      5.09330553     14.95412889       5       0       0       0      24     -0.69713953     -0.20755304      0.16461130
 B               1.24310449      5.04606789     14.96146140       5       0       0       0      24      1.30046095      0.89021210     -0.03977337
 B               3.77670724      5.03550767     14.89804953       5       0       0       0      24     -0.73089313      0.13817579      0.10988609
 B               6.30224497      5.07325200     14.88320022       5       0       0       0      23     -0.80599098     -1.27269119      0.01799501
 B               8.82166431      5.06849951     14.90703708       5      -1       0       0      24     -1.07842016     -0.47169832     -0.04489638
 B              11.28675705      5.07077732     14.99856221       5      -1       0       0      24      0.59761033      0.33892170     -0.08399808
 B              13.79850108      5.10901244     14.97311764       5      -1       0       0      24      0.67747000     -0.85933738      0.20387577
 B              16.34016828      5.04064655     15.02550971       5      -1       0      -1      24     -1.24657748      2.55894872     -0.19749819
 B              -2.51383217      7.27794968     14.98024638       5       0       0       0      24     -1.23028451     -1.21299436     -0.01333020
 B              -0.01609711      7.27511239     14.95680038       5       0       0       0      24     -0.40216286     -1.72078777      0.07417422
 B               2.50386443      7.21450047     14.99498945       5       0       0       0      23     -0.46919330      1.04744817      0.01595834
 B               4.97817301      7.20315860     15.13905001       5       0       0      -1      24      0.98633117     -1.47321550     -0.24913204
 B               7.49527891      7.19862921     15.13692350       5      -1       0      -1      24      1.98375197     -0.54343183     -0.08135228
 B              10.00374934      7.25570407     15.02990277       5      -1       0      -1      24      1.76585680     -0.60788881     -0.28992728
 B              12.53868014      7.24547064     14.93289891       5      -1       0       0      24     -0.02226240      0.79346973      0.14639784
 B              15.02332694      7.26702822     14.97556563       5      -1       0       0      24      2.02124816     -0.81216057      0.13800859
 B              -3.75966072      9.40934308     15.01286680       5       0      -1      -1      24     -1.14472008      1.25946529     -0.04000708
 B              -1.29298456      9.43081988     14.95727065       5       0      -1       0      24      1.01592834     -0.30019497      0.12126382
 B               1.23803095      9.37615859     14.93299955       5       0      -1       0      24     -0.51644899      2.12322750     -0.25928411
 B               3.73903546      9.42172919     15.10611370       5       0      -1      -1      24     -1.10161435     -0.00072290     -0.04091151
 B               8.82879556      9.44258085     15.15961997       5      -1      -1      -1      24     -0.11916655     -0.55910185      0.22118872
 B              11.30231054      9.41144226     14.96719818       5      -1      -1       0      24      0.18407348      1.34174210     -0.01476583
 B              13.78818914      9.40162091     14.97624008       5      -1      -1       0      24      1.01389073      0.89094920     -0.22340191
 B              -5.04790726     11.58143982     14.98706948       5       0      -1       0      24      2.24083734     -0.07607803      0.25840981
 B              -2.48345927     11.55870520     15.01573764       5       0      -1      -1      24     -0.79870367      3.32096120     -0.15551622
 B               0.00255385     11.61864831     14.94455267       5       0      -1       0      24     -0.06011728     -1.76059437     -0.04428107
 B               2.51838710     11.58055191     14.91872779       5       0      -1       0      23     -0.62406976      0.29619194      0.19918041
 B               4.97309574     11.61762229     15.20963708       5      -1      -1      -1      24      1.78176558     -0.06958700     -0.15508182
 B               7.57693017     11.65313247     15.16320405       5      -1      -1      -1      24      0.42243815     -0.86325109     -0.02427350
 B              10.08223341     11.62447454     14.94569349       5      -1      -1       0      23     -0.98436984     -1.53495746     -0.09205405
 B              12.59919194     11.59391161     14.97492367       5      -1      -1       0      24     -2.03275827     -0.37090320     -0.13835342
 B              -6.27332698     13.73751651     15.01344877       5       0      -1      -1      24     -0.40513915      0.99716008     -0.09114996
 B              -3.77657368     13.75654030     15.01111609       5       0      -1      -1      24      0.01495407     -0.33326745     -0.04307214
 B              -1.28142471     13.74116770     14.96237655       5       0      -1       0      24      0.76205413      2.18522037      0.12472664
 B               1.25466517     13.76905800     14.95235917       5       0      -1       0      24     -1.21638830     -0.62115322     -0.11578019
 B               3.74787679     13.78190916     14.97681307       5      -1      -1       0      24     -0.42486473      0.07536559     -0.04971981
 B               6.21887012     13.79306598     15.03199623       5      -1      -1      -1      23      2.97835578     -1.86061156      0.21545220
 B               8.80995338     13.78524497     14.92823288       5      -1      -1       0      24     -1.92776549     -0.37849671      0.09476720
 B              11.30114963     13.76716624     14.89384999       5      -1      -1       0      24     -0.32840990     -0.11892401      0.03685252
 B              -7.51612412     15.95982955     14.99431910       5       0      -1       0      24     -0.58692463     -0.95756615      0.13377314
 B              -4.99623636     15.91964609     15.03864604       5       0      -1      -1      24     -1.63908745     -0.13308192     -0.00608322
 B              -2.52691263     15.91222513     14.97369288       5       0      -1       0      24     -0.35010636      0.95576883      0.08164200
 B               0.00118639     15.92544749     15.02694744       5       0      -1      -1      24     -0.13541113      0.61543875     -0.06768252
 B               2.50090034     15.97770079     14.99782059       5      -1      -1       0      24      0.52765416     -1.45325607      0.15866023
 B               5.01281528     15.92607904     15.01531292       5      -1      -1      -1      24      0.72995928      1.32279195     -0.24832857
 B               7.52401142     15.95712162     15.01415511       5      -1      -1      -1      24      1.03854283     -2.12611726     -0.15733061
 B              10.03898391     15.90231892     14.98714873       5      -1      -1       0      24      0.29152119      2.02838179     -0.27286471
