 128
 energy=-557.55085189282556 cutoff=4.00000000 nneightol=1.20000000 pbc="T T T" Lattice="20.07638462       0.00000000       0.00000000     -10.03819231      17.38665923       0.00000000       0.00000000       0.00000000      30.00000000" Properties=species:S:1:pos:R:3:Z:I:1:map_shift:I:3:n_neighb:I:1:force:R:3
 Ti              6.35087236      9.44239537     16.39947727      22      -1      -1      -1      19     -1.13007004     -0.58832371     -0.54116622
 N               4.82471081     10.03030868     15.42938133       7      -1      -1      -1      22     -2.31076706      2.76519824      0.82123234
 N               0.20020343      1.15540433     15.10902788       7       0       0      -1      23      3.71553121      3.58059700      0.52671689
 N               2.33153933      1.78484376     14.91535581       7       0       0       0      22      3.89365288     -2.69653653      0.71073308
 N               4.87806377      1.09290678     15.01282392       7       0       0      -1      22      3.28780628     -1.31700961     -1.10503795
 N               7.66808294      1.50185943     14.87788484       7       0       0       0      24      0.91423284     -1.51244974      0.86095333
 N              10.37076841      1.44993815     15.13208749       7      -1       0      -1      24     -5.74484074      6.18062765     -1.53237499
 N              12.30863130      1.60985455     15.34655133       7      -1       0      -1      23      0.71341673     -3.26029280     -3.15355623
 N              14.44857586      1.68603299     15.03676514       7      -1       0      -1      21     -2.02735492     -0.77291184     -1.92667428
 N              17.62910040      1.85942490     14.79490959       7      -1       0       0      24      1.23640037    -10.71577790      0.54466406
 N              -1.05899334      3.37171187     14.89362733       7       0       0       0      22     -6.58124564      1.35127649      1.90123570
 N               1.19087663      3.58817040     15.03205906       7       0       0      -1      24     -5.76221438      5.80777988     -1.89682526
 N               3.81591489      3.58148058     14.83624146       7       0       0       0      23     -0.80617723      1.91486814      0.21918896
 N               6.08149510      3.47521177     14.77512372       7       0       0       0      22      7.08144502     -0.49869688      0.63406228
 N               8.74922160      3.65913854     15.09428422       7      -1       0      -1      23      1.35497815     -1.88487718     -3.43150190
 N              11.34135460      3.70291047     15.13933388       7      -1       0      -1      23     -5.79059525      2.63142514     -2.36856898
 N              13.86807738      3.56735819     15.04340973       7      -1       0      -1      22     -1.71519765     -5.50730465     -0.89013925
 N              16.28085353      3.57341896     15.05959448       7      -1       0      -1      22      6.10575187      2.11214727      1.33978810
 N              -2.29036728      5.82430614     15.02760059       7       0       0      -1      22     -1.98174998     -1.52312676     -1.05348352
 N              -0.44253745      5.75121415     15.01684877       7       0       0      -1      23      2.40286936     -5.04752054     -1.74375421
 N               2.34508270      5.83094925     14.97849310       7       0       0       0      24     -1.18514035     -2.07405864     -2.55878700
 N               5.01831244      5.76434371     14.84681536       7       0       0       0      23     -1.95040384     -7.94472482     -0.95487200
 N               7.71011934      5.81005488     14.83173494       7      -1       0       0      23     -6.56704716     -4.48693858     -1.02098639
 N               9.94556417      5.76714112     15.10925955       7      -1       0      -1      21      1.57134321     -2.45051848     -1.49342756
 N              12.38471583      5.55359812     14.77013838       7      -1       0       0      23      5.85411368      2.28932434      2.35533494
 N              14.90409772      5.83940627     14.85163555       7      -1       0       0      22      5.12669138     -1.57868610      2.31598492
 N              -3.68584382      7.85451897     15.00693567       7       0       0      -1      22     -0.82792927      3.96099291     -1.04522945
 N              -1.02745761      7.78517387     14.94791472       7       0       0       0      21     -1.21392336     -9.02792973     -1.39342369
 N               1.48892932      7.95869332     14.99266185       7       0       0       0      23    -10.83672906      5.61234730     -0.96168945
 N               3.69047288      7.90618369     15.23889069       7       0       0      -1      20      4.21379507     -1.11833741     -0.74226097
 N               6.21771360      7.72861835     15.40662686       7      -1       0      -1      23      4.75958397     -1.54058996      0.97162488
 N               8.79754431      8.09058847     15.02686273       7      -1       0      -1      24      3.30347167     -3.54242541      3.52791219
 N              11.29887027      7.73149970     14.88259533       7      -1       0       0      23     -0.66319274      6.36013401      0.82359336
 N              13.72639964      8.24297755     14.84280386       7      -1       0       0      21      3.49388968     -1.75869354      0.34479092
 N              -5.07124662     10.25255047     15.04708023       7       0      -1      -1      24      2.11546544      4.58722217      0.12961369
 N              -2.53923334      9.71829181     15.06339344       7       0      -1      -1      21     -0.63949618     -0.31091842     -1.08678934
 N               0.00704417      9.85117505     14.92183303       7       0      -1       0      22      0.73357077      5.87628313      0.42078155
 N               2.65162243     10.18504971     14.83896204       7       0      -1       0      23     -9.27186161      4.00536730      0.40064609
 N               7.66948273     10.24278478     15.57197264       7      -1      -1      -1      21      2.13481283      0.56330184     -1.06385914
 N              10.26121365     10.30174454     14.97978351       7      -1      -1       0      22     -2.14376815     -4.68885680      1.42172642
 N              12.70732586     10.19955152     15.15856860       7      -1      -1      -1      22     -0.55302509     -1.27582360     -1.53682259
 N              -6.53584710     12.20095188     14.81788637       7       0      -1       0      21      5.54036935      2.16871770      1.90883690
 N              -3.79243423     12.44278392     15.05199901       7       0      -1      -1      22     -1.20624256     -1.42159709     -0.16324076
 N              -1.41721044     12.41956507     14.86021454       7       0      -1       0      21      6.79580553      5.48846316      0.55278336
 N               1.05304397     12.60572695     14.81477495       7       0      -1       0      21     -0.51815145     -5.27377544      1.66407880
 N               3.60395274     12.45755579     14.90662968       7      -1      -1       0      21     -0.40283546     -4.22789823      1.89094401
 N               6.06935260     12.21576012     15.30562641       7      -1      -1      -1      22      7.43758428      3.18997799      0.41422421
 N               8.66414485     12.50973073     14.97202401       7      -1      -1       0      21     -1.66221419     -2.24702038      0.95960531
 N              11.21579503     12.26068410     15.00613259       7      -1      -1      -1      22     -6.87669002      1.19275725      0.16702394
 N              -7.42023909     13.84344547     14.77009863       7       0      -1       0      25     -2.56867417     -1.01505071     -2.03522969
 N              -4.94402896     14.61121914     15.04766204       7       0      -1      -1      22     -2.05750303      0.09984067     -0.52277770
 N              -2.47253927     14.44493931     15.07334276       7       0      -1      -1      21      2.67862312      3.44891669     -2.15232997
 N               0.06990487     14.47000544     15.10298786       7       0      -1      -1      23      4.00655809      4.99730125     -0.58896098
 N               2.75203840     14.63300304     14.99947111       7      -1      -1       0      22     -6.07159434     -5.51216795     -1.50658836
 N               5.14805428     14.33697392     15.08688148       7      -1      -1      -1      22      2.80250384      4.01101424      0.06128965
 N               7.92004007     14.85797259     14.90591545       7      -1      -1       0      22     -6.20875826     -9.16404839      2.01705975
 N              10.19534346     14.42997374     14.80292116       7      -1      -1       0      23     -5.15167693      4.78848006      0.95614994
 N              -9.04250597     16.62415083     14.91461697       7       0      -1       0      23      7.41369665      7.28257605      1.33597779
 N              -6.23362280     16.94424569     14.90253750       7       0      -1       0      22     -0.23149173     -7.66399689      1.48265616
 N              -3.26238653     16.61922777     15.18321775       7       0      -1      -1      23    -10.13338303      1.22264850     -0.07404177
 N              -1.30325913     16.71325960     14.94280219       7       0      -1       0      23      1.17449551      2.74155196     -0.62597441
 N               0.92650160     16.52310335     15.09193744       7      -1      -1      -1      23      7.97056985      4.01049146     -0.96872678
 N               3.68779224     16.65632330     15.07372922       7      -1      -1      -1      22     -1.67363354      1.37843296     -1.77761814
 N               6.36674019     16.42919494     14.88977470       7      -1      -1       0      22      2.81722136     -0.15489525      3.11154541
 N               8.70731632     17.01455063     14.91670994       7      -1      -1       0      21      2.66031749     -5.89332526      1.38158888
 B               1.45672446      0.67983915     15.02848505       5       0       0      -1      23     -2.83210711      1.07581324     -1.60149808
 B               3.53563307      0.73693573     15.04056640       5       0       0      -1      22     -0.18812686     11.80013860     -0.78735571
 B               6.31112810      0.50632285     14.78258072       5       0       0       0      22      2.62773994      4.08282655      3.57714987
 B               9.05132600      0.79385882     15.24270175       5       0       0      -1      24     -2.84657559     -0.54298245     -4.21984438
 B              11.31420214      0.77442266     14.73401040       5      -1       0       0      24      2.86707848     -6.52903773      3.92743714
 B              13.43536716      0.80229805     14.85331956       5      -1       0       0      23      1.62091708     -1.84016335      4.37211062
 B              16.57015024      0.56068263     15.19365276       5      -1       0      -1      21      0.37353732     -0.65089002     -3.22525319
 B              19.00932236      1.03700700     15.12728793       5      -1       0      -1      22     -6.78012831     -5.10900598     -2.49963875
 B               0.17746259      2.61130071     14.75026815       5       0       0       0      24     -2.63944028     -0.43763032      3.05924761
 B               2.41012106      3.41566282     14.94477870       5       0       0       0      25      5.97611394     -8.96671594     -0.47136754
 B               5.03196132      2.54780196     14.81737599       5       0       0       0      24     -5.53784546      6.78809657      0.59794797
 B               7.50622020      2.91975543     14.93660083       5       0       0       0      23     -1.28988409     -1.34755735     -0.54830886
 B              10.12270263      3.00202310     14.74740787       5      -1       0       0      23     -0.41722614      0.55126527      5.73600145
 B              12.49022257      2.90075605     15.03667862       5      -1       0      -1      22      4.79000450      2.26278261      1.40556835
 B              15.17353376      2.78319893     14.82422550       5      -1       0       0      23     -5.02710184      5.75297103      2.32566277
 B              17.56582159      2.86542960     15.37842706       5      -1       0      -1      22      1.27968751     11.42374795     -2.88038900
 B              -1.42996583      4.77081450     14.91907795       5       0       0       0      23      3.25987697      4.32820671     -0.48236892
 B               1.00316415      5.13218957     14.68014622       5       0       0       0      23     -2.25349595      0.04428582      5.24673825
 B               3.58534836      5.04812325     14.88328655       5       0       0       0      23      5.35349024     -1.90233769     -0.29292641
 B               6.27368296      4.93126298     14.86465691       5       0       0       0      21     -1.42167281      2.01973301     -0.79375251
 B               8.71009551      4.97296251     14.65614460       5      -1       0       0      23      5.50664987      2.92970243      4.96489983
 B              11.23698178      5.11820987     14.97459490       5      -1       0       0      23     -5.27626824     -3.91894708      1.24214261
 B              13.87452184      4.85839179     15.18959520       5      -1       0      -1      23     -2.81559811      3.49113204     -4.05961259
 B              16.50150445      5.21971925     14.87745398       5      -1       0       0      20     -2.70773291     -5.03970688      1.64613601
 B              -2.43434489      7.20795828     14.82979808       5       0       0       0      23      5.70066544      2.28759478      2.31627469
 B               0.17680264      6.92964735     14.96856777       5       0       0       0      23     -0.82436116      8.50534729      0.13992779
 B               2.50586697      7.42885557     14.88815948       5       0       0       0      21      6.00138098     -8.80276704      0.63601136
 B               5.06237396      7.03623105     14.95020534       5       0       0       0      22     -3.21930495      7.66436089      3.69032080
 B               7.74556367      7.06456058     15.34747809       5      -1       0      -1      20     -2.37115297      4.99847327     -3.23608195
 B              10.21674966      7.11871905     15.15642776       5      -1       0      -1      21     -9.93943754      0.97985646     -1.48883060
 B              12.34255242      7.02994032     15.09230979       5      -1       0      -1      22      8.76034572     -0.98964920     -2.92613994
 B              15.16060880      7.25866100     15.11408151       5      -1       0      -1      24     -6.37128554      1.70427963     -3.37709709
 B              -3.99296293      9.43516067     14.90694157       5       0      -1       0      23      6.95880921     -3.23858951      1.95650655
 B              -1.12756618      9.03273235     15.03386408       5       0      -1      -1      23     -5.99605670      6.44553613     -0.17872785
 B               1.33729039      9.63868477     14.72703459       5       0      -1       0      22      1.74368686     -7.16314106      2.25474581
 B               3.49282761      9.29692197     15.37793429       5       0      -1      -1      21      5.75286930     -0.12917077     -1.69722617
 B               8.92765074      9.45956895     15.36344958       5      -1      -1      -1      21     -1.08933126      0.96834634     -2.62215208
 B              11.56944739      9.55621324     15.09179430       5      -1      -1      -1      23     -3.16181243     -3.17451960     -1.38263382
 B              13.92772009      9.67716769     14.63503225       5      -1      -1       0      23     -6.30866951     -5.71624460      4.31895839
 B              -4.99958021     11.69331464     15.23771840       5       0      -1      -1      22     -5.42012588      0.27212913     -4.27915348
 B              -2.54509242     11.80387734     14.79336093       5       0      -1       0      23     -2.62394488     -3.12517993      2.16558631
 B              -0.18401510     11.69537442     15.01978937       5       0      -1      -1      22     -1.21384234      0.20825807     -2.54646271
 B               2.14949764     11.68745432     15.15819047       5       0      -1      -1      22      7.37107969      2.34220330     -4.37892043
 B               4.91165020     11.56154605     15.12417500       5      -1      -1      -1      21     -6.20964249     -1.67537435      1.03439528
 B               7.40109445     11.64827139     15.17852117       5      -1      -1      -1      21      1.76571297      0.18252954      1.42822987
 B               9.97682692     11.59840238     14.82013117       5      -1      -1       0      23     -0.19509070      6.51412914      2.38017173
 B              12.19314612     11.54898038     14.81852092       5      -1      -1       0      21     13.09155646      0.34301421      1.32141147
 B              -6.25164346     13.69165918     15.04374549       5       0      -1      -1      23      4.91503955     -2.39160008     -0.74999681
 B              -3.72399725     13.84287636     14.91530164       5       0      -1       0      22     -0.66059177      0.53470241      1.92079252
 B              -1.07394623     14.06020680     15.04753302       5       0      -1      -1      21    -11.26054718    -10.91287264     -0.84124431
 B               1.31586860     13.92421074     14.79860811       5       0      -1       0      24      3.80600415      3.03808984      2.16769718
 B               3.84027044     13.79644884     15.00316467       5      -1      -1      -1      20      2.06680752     -0.36484965      0.26701998
 B               6.58463219     13.79344668     15.37393299       5      -1      -1      -1      22     -4.67439815     -0.31984962     -5.61450963
 B               8.82061526     13.93964937     15.18147357       5      -1      -1      -1      23      6.34280898     -1.66304448     -3.91813028
 B              11.35680963     13.64988861     14.92969256       5      -1      -1       0      24     -0.54086063     -0.03401184     -0.06506612
 B              -7.63021463     16.44223966     15.34733720       5       0      -1      -1      24      0.23462560     -3.19309961     -3.79317287
 B              -4.96774088     16.07395113     14.98068058       5       0      -1       0      23      2.32671394     -4.80806640      1.57358466
 B              -2.38384011     15.89445959     14.80816801       5       0      -1       0      23      3.40076683     -5.81493977      0.91467585
 B              -0.20254266     15.96917695     14.90623790       5       0      -1       0      23      0.67741452     -3.57146227      1.12206742
 B               2.42773094     15.83689974     15.19607008       5      -1      -1      -1      22      0.12283349      8.13643441     -1.32656610
 B               4.89910673     15.92029760     14.82389979       5      -1      -1       0      23      2.82600464     -3.18003710      3.81398719
 B               7.78547339     15.94903152     15.38761423       5      -1      -1      -1      21     -2.75332175     12.87497918     -4.45996661
 B               9.84712427     15.97057674     14.66368988       5      -1      -1       0      23     -1.49822923     -3.92047905      2.96335861
