 128
 energy=-583.45986212563071 cutoff=4.00000000 nneightol=1.20000000 pbc="T T T" Lattice="20.07638462       0.00000000       0.00000000     -10.03819231      17.38665923       0.00000000       0.00000000       0.00000000      30.00000000" Properties=species:S:1:pos:R:3:Z:I:1:map_shift:I:3:n_neighb:I:1:force:R:3
 Ti              6.35836462      9.45140810     16.41002312      22      -1      -1      -1      20     -0.39602775     -0.70559514     -0.37723574
 N               4.84868237      9.94263137     15.52630584       7      -1      -1      -1      22     -3.32436148      3.01561395     -0.81585132
 N               0.11817851      1.18827852     15.19995120       7       0       0      -1      23      4.95775168      3.54335149     -0.31786420
 N               2.54080568      1.78727946     14.90950739       7       0       0       0      22     -5.22550928      1.13036650      0.69870302
 N               4.91666988      1.03394164     14.95365616       7       0       0       0      21      2.80315980      4.33198734      0.06760498
 N               7.77941454      1.48484372     14.85410357       7       0       0       0      23     -1.30189320     -2.24403571      1.64371512
 N              10.26546952      1.63335000     15.01658446       7      -1       0      -1      25     -0.57043178     -0.85155456      0.08741997
 N              12.27964591      1.67079427     15.27475716       7      -1       0      -1      21      0.83470893     -6.16086462      0.32733229
 N              14.19111682      1.76377386     14.94978755       7      -1       0       0      23     -4.27868493      3.65428711     -0.83992525
 N              17.71569636      1.65028731     14.88743007       7      -1       0       0      24     -4.90667275     -2.36381084      0.75047073
 N              -1.09772093      3.37276990     14.91676698       7       0       0       0      22     -1.62077802      0.85212019      0.92376273
 N               1.05911082      3.63333858     14.92441175       7       0       0       0      23     -2.81414518      5.02474683     -0.20203868
 N               3.80299918      3.59337181     14.81764399       7       0       0       0      22     -1.00029100      1.22900748      0.79521272
 N               6.15927404      3.49078455     14.73775206       7       0       0       0      22      1.75415913     -5.58068647      1.08710696
 N               8.73766063      3.56527736     14.94688575       7      -1       0       0      22      4.33398905      3.84106131      0.84669555
 N              11.21091121      3.69461439     15.00493284       7      -1       0      -1      23      5.01029041      3.99099176      0.46784742
 N              13.80314465      3.55247868     15.04542716       7      -1       0      -1      22     -0.11680788     -4.21986825      0.53561419
 N              16.32277285      3.64468015     15.11648656       7      -1       0      -1      21      0.42156852     -1.50968136     -0.48280304
 N              -2.20144400      5.72406043     14.99189620       7       0       0       0      23     -7.00066242      0.65347026     -0.29182850
 N              -0.51364563      5.67686507     14.95723327       7       0       0       0      23      7.08538316      3.39803673      0.25075569
 N               2.23542590      5.72533029     14.85533303       7       0       0       0      22      6.56149627     -0.11140486      0.89856295
 N               5.04214889      5.67282395     14.79283036       7       0       0       0      23     -5.82925044      0.20716240      0.52617055
 N               7.54035273      5.72368994     14.79841165       7      -1       0       0      23      0.77604722     -0.71973771      0.20105104
 N               9.98898241      5.70045038     15.11130539       7      -1       0      -1      23      0.10061635      3.26596163     -0.94031608
 N              12.42762094      5.56054187     14.91075295       7      -1       0       0      24      7.06968978      0.29277884     -0.99436176
 N              14.96630715      5.74318482     14.95809309       7      -1       0       0      22      1.86603472      2.54678952     -1.34638952
 N              -3.62767720      7.92971380     14.95210805       7       0       0       0      22     -2.25493280      0.89047018      0.26650098
 N              -1.09927843      7.66285429     14.88297985       7       0       0       0      21      2.99962774     -1.32449349      0.58229882
 N               1.52682317      7.95825299     14.92597243       7       0       0       0      23    -10.19749503      6.05975625     -0.40740633
 N               3.68466849      7.78867158     15.24417453       7       0       0      -1      21      7.53945508      2.90249410      0.95830493
 N               6.31935282      7.64940364     15.42644450       7      -1       0      -1      20      1.47508815      0.88214635      0.41687286
 N               8.74266655      8.09362646     15.19067349       7      -1       0      -1      23      8.91360233     -3.67664832     -0.47049305
 N              11.38017941      7.70258386     14.98314158       7      -1       0       0      23     -3.93442360      5.77796030      0.20556688
 N              13.70692966      8.21766612     14.84484165       7      -1       0       0      22      2.77990688     -5.58916598     -0.56166378
 N              -5.02211879     10.28607947     14.99646188       7       0      -1       0      23     -2.27263696      1.38094035      0.03550980
 N              -2.50152186      9.49070832     14.98541853       7       0      -1       0      22     -1.22441064     -1.89754923      0.72951529
 N               0.00752428      9.97983051     14.93041470       7       0      -1       0      22     -2.83801388      2.40433508      0.50244592
 N               2.43282311     10.35869843     14.87094590       7       0      -1       0      22      0.18688631     -4.12423527      1.11889651
 N               7.89244352     10.32041665     15.58156120       7      -1      -1      -1      20     -5.09410099     -3.64762033      1.54707026
 N              10.26532103     10.33410937     15.03945312       7      -1      -1      -1      22     -0.53520661     -4.65011537     -0.54190374
 N              12.65697445     10.07915071     15.14505914       7      -1      -1      -1      22      1.96750491      3.99022524      0.13353392
 N              -6.41413510     12.26591137     14.80800159       7       0      -1       0      22      3.42302754      2.14492427      2.03122492
 N              -3.84530794     12.44702083     15.04675787       7       0      -1      -1      21     -2.70368998      0.70176020      1.31501045
 N              -1.42084913     12.44354084     14.80268488       7       0      -1       0      22      2.09056661      2.18750044      1.01382659
 N               1.10919313     12.46481099     14.84803360       7       0      -1       0      20     -4.05142026      3.78229536      0.19524122
 N               3.39899829     12.42658930     14.92809170       7      -1      -1       0      21      8.40017378      2.85551074      0.97374297
 N               6.24538484     12.38276412     15.39693919       7      -1      -1      -1      22     -2.75022015     -6.58143226     -1.36071856
 N               8.52515254     12.51695954     15.05941144       7      -1      -1      -1      22      5.39632373     -1.38301611     -2.33260270
 N              11.05704314     12.21133266     15.03549660       7      -1      -1      -1      21      8.90426779      3.23444221     -0.54227869
 N              -7.41894962     13.58866590     14.69337483       7       0      -1       0      23     -1.71207798     -3.47275888     -0.70972665
 N              -4.86562313     14.62433060     14.98394598       7       0      -1       0      22     -3.07599916     -5.76917052      0.77638652
 N              -2.54653733     14.52855719     15.00426394       7       0      -1      -1      23      1.96551363     -3.17286727     -0.01223408
 N               0.14003659     14.68083081     15.13397131       7       0      -1      -1      22     -1.51355896     -4.52398538     -0.73892726
 N               2.78728295     14.53646632     14.96151590       7      -1      -1       0      21     -5.05740937      1.63486109      0.18455895
 N               5.20620904     14.40276687     15.12813880       7      -1      -1      -1      21     -4.40165246      4.85081199     -0.96208152
 N               7.94152351     14.73572326     15.16206761       7      -1      -1      -1      23    -10.03698353      0.56596949      0.76544013
 N              10.09192726     14.58374705     14.85031688       7      -1      -1       0      24      5.48251673      2.19057169     -2.14664398
 N              -8.91962490     16.60390242     14.95207851       7       0      -1       0      23      0.83102808      8.63164826     -0.81182094
 N              -6.24714762     16.92873880     14.92580465       7       0      -1       0      23     -0.60351675     -0.63910795      2.10929645
 N              -3.31075354     16.60375757     15.16380715       7       0      -1      -1      23     -5.90457041     -1.32474133      0.72214908
 N              -1.18253919     16.76428146     14.88045660       7       0      -1       0      23     -5.29906272      1.10105930     -1.14540093
 N               0.88330242     16.46087454     15.02002542       7      -1      -1      -1      23     13.17428966      5.87521348      0.18162191
 N               3.77191178     16.77373004     14.98557677       7      -1      -1       0      22     -1.88766477     -9.25239312      1.15893649
 N               6.36606498     16.44881867     15.01069967       7      -1      -1      -1      23      1.47266635      1.50451053     -0.22243067
 N               8.81291917     17.04317329     15.02888582       7      -1      -1      -1      21      5.47840800     -7.49168886     -3.23637375
 B               1.38957461      0.66256285     14.97208817       5       0       0       0      22      0.37752354      4.81490937     -0.23062796
 B               3.58801733      0.95729817     14.99106901       5       0       0       0      21      2.86585895     -0.44286289     -0.53141509
 B               6.32341099      0.54485515     14.97386022       5       0       0       0      22      2.54263875      1.24376496      0.08174942
 B               9.10644280      0.72759059     15.09136233       5       0       0      -1      23     -2.39857061      4.57018820     -2.10416145
 B              11.25653732      0.69815868     14.90660059       5      -1       0       0      24     -0.82708140     -1.38435497      2.25535557
 B              13.45333257      0.65078922     15.11340347       5      -1       0      -1      24     -1.15767394      9.33383960      0.42308089
 B              16.57692337      0.46645681     14.97095757       5      -1       0       0      21      2.52841292      3.49951721      0.39126028
 B              18.93127266      1.08292286     14.92149441       5      -1       0       0      22     -1.14088191     -7.06574194      0.24976285
 B               0.05891326      2.64752256     14.88706335       5       0       0       0      24     -1.52271799     -1.20647494      1.51406077
 B               2.34202888      3.44664100     14.94910179       5       0       0       0      24      5.58839427     -9.21919216     -1.10566528
 B               4.96130844      2.62125263     14.84106727       5       0       0       0      23     -1.72037398     -1.16318071      0.04675507
 B               7.54188878      2.91487397     14.95971074       5       0       0       0      24     -0.40301102     -2.57848348     -1.87222413
 B              10.18315039      3.08636545     15.11366103       5      -1       0      -1      24     -8.30766439     -5.34800782     -0.93996663
 B              12.55347728      2.96110449     15.23600182       5      -1       0      -1      22      1.33894957     -2.93262313     -2.60000285
 B              15.04652615      2.85587061     14.90345002       5      -1       0       0      24      0.33115261      1.95297636      2.34819782
 B              17.65150854      2.96896859     15.29766460       5      -1       0      -1      23      0.27658954      2.85457811     -3.83201670
 B              -1.35659613      4.75617191     14.90395212       5       0       0       0      23     -2.03891057      2.71739962     -0.50578036
 B               1.03012378      5.20242995     14.88410332       5       0       0       0      23     -4.49609439     -4.36153418      0.38622952
 B               3.69408062      4.99491539     14.88296023       5       0       0       0      23     -1.24967451      1.71583284     -1.14639811
 B               6.12501361      4.84632837     14.80517167       5       0       0       0      22      5.00968464      4.40798220     -0.39046397
 B               8.74965300      5.00228416     14.86355592       5      -1       0       0      24     -0.06935975     -0.98328116      1.04782641
 B              11.26625739      5.04577775     14.98528020       5      -1       0       0      24     -5.72747648     -1.54159505      0.44773499
 B              13.84387287      4.79073878     14.85392057       5      -1       0       0      22     -2.00519668      7.42333618      0.75217073
 B              16.32765306      5.29119385     14.88805148       5      -1       0       0      23      5.31786547     -4.11934430      2.11221963
 B              -2.34516243      7.17827145     14.94213521       5       0       0       0      21     -2.81570989      1.64930293      0.31207551
 B               0.14754626      6.93425886     14.99532858       5       0       0       0      23      0.79388945      2.65926835     -1.36857238
 B               2.56020001      7.36325829     14.97607346       5       0       0       0      22      0.29798207     -8.00125626     -0.87596653
 B               5.04799279      7.09112280     15.09515563       5       0       0      -1      22     -1.27900572     -0.29538611      0.83487013
 B               7.84285673      7.16471743     15.14053834       5      -1       0      -1      22    -11.25099785     -4.91255597     -0.25654118
 B              10.11427757      7.23694878     15.05786561       5      -1       0      -1      22     -2.53836202     -2.85521488      0.42532032
 B              12.46036106      6.99183497     14.83898819       5      -1       0       0      23      6.17149631      1.91102050      0.55658027
 B              15.13126925      7.31340382     14.93014074       5      -1       0       0      24     -3.08971440      2.45833678     -0.38909618
 B              -3.90276207      9.47906563     15.04370192       5       0      -1      -1      23      3.00904326     -5.03981525     -0.83615154
 B              -1.19283944      9.04405306     15.06921715       5       0      -1      -1      23      0.01701422      1.75492057     -1.77976220
 B               1.28806086      9.56612408     14.77249720       5       0      -1       0      22      1.30287278     -3.85843169      1.68016641
 B               3.45638244      9.26430872     15.32570860       5       0      -1      -1      20      1.09314722      2.39209408     -2.24689198
 B               8.88132117      9.41592097     15.25226310       5      -1      -1      -1      22      5.93826921      7.22839099     -0.78714534
 B              11.57073700      9.58596421     15.03168181       5      -1      -1      -1      23     -8.61968762     -6.08068931     -0.60827648
 B              13.80967765      9.55983730     14.86645321       5      -1      -1       0      23      3.98759125     -1.96389478      0.81603581
 B              -4.99728504     11.72947645     15.09847119       5       0      -1      -1      23     -8.00420618     -2.24861278     -2.07678165
 B              -2.71964781     11.95999480     14.88321083       5       0      -1       0      20     11.06207978     -8.67518431     -0.42185643
 B              -0.23644166     11.54192935     14.93393837       5       0      -1       0      22      4.13071319      0.87384665     -1.27602174
 B               2.25981807     11.82703558     14.94244331       5       0      -1       0      22     -0.33355963     -5.16401267     -0.59690739
 B               4.75926296     11.63469749     15.12832657       5      -1      -1      -1      21     -1.64526717      1.81186932      1.87927133
 B               7.45524386     11.56801543     15.23235319       5      -1      -1      -1      21      2.16213984      6.22534190      0.73038351
 B               9.92487492     11.69279326     14.91274910       5      -1      -1       0      23     -5.93720777      0.60813434      1.36782168
 B              12.41083575     11.55928004     14.84297030       5      -1      -1       0      21     -0.53639137      6.03898512      2.05962212
 B              -6.15017549     13.77298139     14.98817299       5       0      -1       0      21     -3.33777510      1.30292516     -1.13664562
 B              -3.73476719     13.78021537     15.06570551       5       0      -1      -1      22     -0.33187053      6.31262461     -0.53517087
 B              -1.24125787     13.86473107     15.05172309       5       0      -1      -1      22      2.66940619      2.09108046     -0.91879127
 B               1.45876357     14.05786802     14.85314987       5       0      -1       0      24     -4.92904949     -4.23726490      1.74016253
 B               3.84293178     13.84113164     15.03781072       5      -1      -1      -1      20      5.54951488     -3.82351352     -0.12123496
 B               6.47279240     13.67545538     15.15567155       5      -1      -1      -1      22      3.18512278      5.43915654      0.30000424
 B               8.90870654     13.97677891     14.92885360       5      -1      -1       0      22     -1.46924064     -4.37361160      0.56124146
 B              11.33976879     13.64211512     14.92205555       5      -1      -1       0      24     -3.36493774     -0.09706610     -0.11990101
 B              -7.65988996     16.56747304     15.18563530       5       0      -1      -1      23      6.68779084     -8.24445408     -1.35832678
 B              -5.01110117     15.94871050     15.09415775       5       0      -1      -1      23      3.06618795      6.68574731     -0.81982768
 B              -2.31640662     15.84858352     14.88723630       5       0      -1       0      23      1.99493888      6.39325448      0.44973130
 B              -0.23147795     16.00438111     14.97209493       5       0      -1       0      23      1.66345939     -6.06289055      0.69816043
 B               2.43765730     15.83979731     15.20709215       5      -1      -1      -1      21     -1.16178108      3.41538780     -2.94465624
 B               5.02974211     15.96015489     14.99254088       5      -1      -1       0      23     -0.45849543     -3.80801540      0.81454989
 B               7.77637541     16.15460864     15.10913935       5      -1      -1      -1      20     -0.05417862     -2.01165126     -0.47218180
 B              10.02603238     16.02451852     14.59558494       5      -1      -1       0      23     -7.05878911     -1.22472542      4.70237185
