 128
 energy=-574.59311649762401 cutoff=4.00000000 nneightol=1.20000000 pbc="T T T" Lattice="20.07638462       0.00000000       0.00000000     -10.03819231      17.38665923       0.00000000       0.00000000       0.00000000      30.00000000" Properties=species:S:1:pos:R:3:Z:I:1:map_shift:I:3:n_neighb:I:1:force:R:3
 Ti              6.35648335      9.44896205     16.40688130      22      -1      -1      -1      20     -0.67086172     -0.70090194     -0.44173471
 N               4.84874588      9.96239967     15.49446710       7      -1      -1      -1      22     -3.03088016      3.48796298     -0.35836468
 N               0.12496594      1.16698209     15.16896396       7       0       0      -1      23      7.72994442      3.76524589      0.22206626
 N               2.47545512      1.79132707     14.90881302       7       0       0       0      22     -2.75121810     -1.36464313      0.97668516
 N               4.89343611      1.04824552     14.97453984       7       0       0       0      21      3.75957960      2.73191432     -0.28529094
 N               7.74179145      1.49622292     14.85830838       7       0       0       0      24     -0.06698185     -2.23863919      1.44076291
 N              10.30998680      1.56263091     15.05684306       7      -1       0      -1      24     -2.73842854      2.65461969     -0.49856572
 N              12.28708813      1.66636969     15.30236793       7      -1       0      -1      22      0.79238173     -6.22712462     -0.96399578
 N              14.28569971      1.73458486     14.98280668       7      -1       0       0      23     -3.42437813      1.71335576     -1.35982418
 N              17.68864744      1.74485759     14.85567753       7      -1       0       0      24     -1.20298888     -8.33760696      0.45149542
 N              -1.07494747      3.37016817     14.90469307       7       0       0       0      22     -2.92567200      0.65469936      1.50555500
 N               1.12127150      3.60040262     14.96284616       7       0       0       0      23     -6.51570633      6.56585992     -0.76785750
 N               3.81182308      3.58350732     14.82210565       7       0       0       0      23     -1.67857869      2.14020005      0.70246982
 N               6.11882234      3.49619159     14.74774553       7       0       0       0      23      4.73476763     -4.55670420      0.93773408
 N               8.73123152      3.59340690     14.99906306       7      -1       0       0      22      4.18414505      1.85868731     -0.63861967
 N              11.25391576      3.68450558     15.05053142       7      -1       0      -1      23      1.70932005      5.04364006      0.09467384
 N              13.82792345      3.57904038     15.04498561       7      -1       0      -1      22     -0.98353501     -7.98931612      0.17030070
 N              16.29944430      3.62129345     15.09666358       7      -1       0      -1      22      2.71515875     -0.58136955      0.08592087
 N              -2.21837613      5.75921767     15.00604036       7       0       0      -1      23     -5.06868488     -0.45744752     -0.74664777
 N              -0.50401821      5.70534710     14.97917319       7       0       0       0      23      5.70758911     -0.33911959     -0.53199861
 N               2.26433101      5.76531646     14.89783493       7       0       0       0      24      3.76877526     -1.56191948     -0.08717356
 N               5.04578509      5.71635732     14.81179859       7       0       0       0      23     -4.69873775     -3.74511769     -0.18879826
 N               7.60549740      5.75875695     14.81037290       7      -1       0       0      23     -2.23358456     -1.78048988     -0.14755225
 N               9.97004911      5.71884906     15.11417811       7      -1       0      -1      22      1.50800222      2.07594911     -1.24467932
 N              12.39017794      5.55274208     14.86305641       7      -1       0       0      23      8.64741523      1.83341247     -0.05164548
 N              14.93275313      5.77373029     14.92188540       7      -1       0       0      22      4.36715095      1.03288227     -0.14869514
 N              -3.64062465      7.89761272     14.97140501       7       0       0       0      22     -2.56156311      2.21786626     -0.23128430
 N              -1.07866263      7.72264518     14.90576421       7       0       0       0      21      1.69763289     -5.99791140     -0.17178114
 N               1.55362329      7.93690409     14.94986888       7       0       0       0      23    -14.47133772      8.03537376     -0.63254070
 N               3.66791966      7.82418585     15.24128680       7       0       0      -1      21      7.33690869      1.76782061      0.63010922
 N               6.27691554      7.67564733     15.41776180       7      -1       0      -1      21      2.65368735      0.39764327      0.70671369
 N               8.74125055      8.10456623     15.13392865       7      -1       0      -1      23      7.98103002     -4.40550264      0.27828673
 N              11.36417607      7.69196108     14.94848123       7      -1       0       0      23     -4.56770568      7.29628793      0.49553471
 N              13.70557669      8.23363330     14.84414444       7      -1       0       0      21      2.71942507     -3.08703102     -0.05646158
 N              -5.03609781     10.26263337     15.01330133       7       0      -1      -1      24     -1.50610391      4.16183027     -0.07573744
 N              -2.51134436      9.57093357     15.01087484       7       0      -1      -1      22     -1.07427444     -1.77384757      0.42807661
 N               0.01149882      9.92434178     14.92578125       7       0      -1       0      22     -1.93380979      4.20143146      0.66866498
 N               2.51843873     10.30165847     14.85711963       7       0      -1       0      22     -3.48162229     -1.23751415      1.27785937
 N               7.82218794     10.29940292     15.57781506       7      -1      -1      -1      20     -2.29826304     -2.28091521      0.52034326
 N              10.26647593     10.34045306     15.01842125       7      -1      -1      -1      22     -0.64627185     -6.26906045      0.18049573
 N              12.66842144     10.11474150     15.15084799       7      -1      -1      -1      22      2.40243730      2.32649329     -0.23336407
 N              -6.46863455     12.23815147     14.80560121       7       0      -1       0      21      4.97444547      2.15341299      2.11405174
 N              -3.82040163     12.44603973     15.04624255       7       0      -1      -1      22     -3.01243207      0.14398100      1.01731181
 N              -1.43189060     12.42241367     14.81941213       7       0      -1       0      22      3.77559818      4.55948477      0.95562283
 N               1.09947184     12.50934235     14.83502535       7       0      -1       0      20     -3.86762260      2.15684320      0.51205660
 N               3.45984239     12.44022613     14.91691298       7      -1      -1       0      21      3.61013281     -0.47860047      1.32477581
 N               6.18457333     12.33438172     15.36953148       7      -1      -1      -1      21     -0.58731498     -3.95404732     -1.37489703
 N               8.56707611     12.52000175     15.03223752       7      -1      -1      -1      22      2.49001421     -1.92463961     -1.08403060
 N              11.10315260     12.22307719     15.02657214       7      -1      -1      -1      21      4.57405266      1.89244764     -0.40942943
 N              -7.41228413     13.67813283     14.72321297       7       0      -1       0      23     -2.42826757     -1.84146667     -1.39981666
 N              -4.88303428     14.63117122     15.00424428       7       0      -1      -1      22     -3.42447425     -4.87520331      0.50337184
 N              -2.52728236     14.50166006     15.02993578       7       0      -1      -1      22      1.73500121     -1.24703691     -0.70621472
 N               0.11702343     14.61310892     15.12623382       7       0      -1      -1      23     -0.99600403     -2.22544603     -0.98365507
 N               2.79445921     14.57213008     14.97612710       7      -1      -1       0      21     -6.90271184     -0.38145374     -0.52125808
 N               5.19033894     14.36753076     15.11604013       7      -1      -1      -1      21     -2.27184417      5.05991399     -0.73487568
 N               7.96337602     14.78784229     15.07273793       7      -1      -1      -1      22    -11.44805497     -2.82214536      1.61378664
 N              10.12354802     14.52129198     14.83744723       7      -1      -1       0      23      2.38720965      3.90062142     -1.47120353
 N              -8.97657822     16.58423055     14.93821141       7       0      -1       0      23      5.31341521      9.96594568      0.29972028
 N              -6.24055024     16.94828890     14.91270713       7       0      -1       0      23     -0.90956607     -4.38902436      2.05647226
 N              -3.27063791     16.60714295     15.16826710       7       0      -1      -1      23     -8.18679699      0.32720562      0.79669846
 N              -1.21302887     16.73962851     14.90360638       7       0      -1       0      23     -4.50951655      2.66251122     -0.93494665
 N               0.86191431     16.46411032     15.04414055       7      -1      -1      -1      23     13.87782315      6.68591089      0.06551042
 N               3.75081201     16.74836954     15.01479579       7      -1      -1      -1      22     -2.52291967     -6.44714439      0.41378410
 N               6.36042704     16.44113456     14.96719476       7      -1      -1       0      23      1.94567657      0.59057844      0.76944336
 N               8.76481164     17.05528413     14.99537777       7      -1      -1       0      21      5.05312642     -8.12587068     -1.93859779
 B               1.41674527      0.65529816     14.99438912       5       0       0       0      22     -1.00563977      4.07394576     -0.81859863
 B               3.56897903      0.85822863     15.01037171       5       0       0      -1      21      0.80432546      5.65801264     -0.78937785
 B               6.31072139      0.52227146     14.90435900       5       0       0       0      22      2.30030784      2.43204503      1.20713684
 B               9.09894593      0.74196398     15.15331048       5       0       0      -1      23     -3.00923084      2.78702507     -2.99191164
 B              11.26933768      0.73828582     14.83794938       5      -1       0       0      24      1.32151144     -3.52037664      3.00809070
 B              13.45001130      0.68309214     15.01928722       5      -1       0      -1      23     -1.05202622      6.60782999      1.62111314
 B              16.56178667      0.49589319     15.04994667       5      -1       0      -1      21      4.09537453      0.97365940     -0.94277569
 B              18.98808976      1.08549964     14.99480268       5      -1       0       0      22     -8.40832713     -5.02198394     -1.09724126
 B               0.10723713      2.63992390     14.83398460       5       0       0       0      24     -2.49758591     -1.30514303      1.92156444
 B               2.32991130      3.47002042     14.95080917       5       0       0       0      24     10.26820361     -9.66680340     -0.93403136
 B               4.99991329      2.59206673     14.83168267       5       0       0       0      23     -3.78606502     -0.18638281      0.39164496
 B               7.53395326      2.92471239     14.95729980       5       0       0       0      24     -1.03077342     -2.46355176     -1.65027841
 B              10.18101121      3.07293118     14.98628952       5      -1       0       0      24     -6.32982496     -4.93949637      0.65434572
 B              12.52069462      2.94104101     15.17304815       5      -1       0      -1      21      2.86051627     -0.55611788     -1.42030704
 B              15.09687725      2.81383762     14.86833127       5      -1       0       0      24     -1.63268744      4.57918224      2.47376200
 B              17.62050704      2.90250211     15.33662085       5      -1       0      -1      23      0.58479049      7.97947051     -3.61406071
 B              -1.37943590      4.74609701     14.91081514       5       0       0       0      23     -1.41530292      4.09934931     -0.52205597
 B               1.03735523      5.18483678     14.80708339       5       0       0       0      23     -4.93804841     -2.15272350      1.94303081
 B               3.65277464      5.01053136     14.88592524       5       0       0       0      23      0.46675039      1.17350828     -0.90312575
 B               6.16887106      4.85885979     14.82700328       5       0       0       0      22      2.32589326      4.85584495     -0.51263337
 B               8.72487917      4.98852466     14.78364360       5      -1       0       0      24      2.61157570      0.65773774      2.60224765
 B              11.28634754      5.08404362     14.97747267       5      -1       0       0      24     -8.62583020     -3.80203200      1.09163194
 B              13.86417398      4.78317221     14.97032893       5      -1       0       0      22     -2.76042876      9.23161247     -0.82821992
 B              16.38082513      5.28184875     14.87672664       5      -1       0       0      22      2.24292351     -3.81057049      2.26464959
 B              -2.38637755      7.18236323     14.90001696       5       0       0       0      21      2.32978038      1.53686893      1.09890233
 B               0.15513921      6.91309966     14.98898778       5       0       0       0      23      0.98321720      4.65576411     -0.90328344
 B               2.51938562      7.42527212     14.94833871       5       0       0       0      22      5.22644880    -11.01480301     -0.54085086
 B               5.06418716      7.05805233     15.03861385       5       0       0      -1      22     -3.06256701      3.12676107      1.98998876
 B               7.83850102      7.13390385     15.21432632       5      -1       0      -1      22     -9.10310267     -2.08932462     -0.99587467
 B              10.17400224      7.20571474     15.09238767       5      -1       0      -1      22     -6.22398946     -2.78108819     -0.30782880
 B              12.38335866      7.00720443     14.92708231       5      -1       0       0      23     10.47370198     -0.47106868     -0.74667910
 B              15.15911875      7.28795497     14.99811869       5      -1       0       0      24     -4.69035843      2.15275933     -1.55588447
 B              -3.95786740      9.48384180     14.99690968       5       0      -1       0      23      6.74394979     -5.76478350      0.03417819
 B              -1.15789635      9.02037032     15.06083852       5       0      -1      -1      23     -2.52219054      4.84266468     -1.16539936
 B               1.29578405      9.61059840     14.75055180       5       0      -1       0      22      2.45605555     -5.39662877      1.84908862
 B               3.45772368      9.27174218     15.35159181       5       0      -1      -1      21      2.44833107      1.32569524     -2.49408716
 B               8.88283875      9.40840602     15.29508582       5      -1      -1      -1      22      4.62195804      6.98071499     -1.37788230
 B              11.59863236      9.59469686     15.05515670       5      -1      -1      -1      23     -8.84357285     -5.62838239     -0.89901964
 B              13.85418176      9.61612322     14.78109273       5      -1      -1       0      23     -0.13765975     -4.45447663      1.91532750
 B              -4.96969387     11.72303244     15.15619057       5       0      -1      -1      23     -8.42333070     -1.92815938     -2.93840871
 B              -2.67641027     11.92470712     14.85121860       5       0      -1       0      21      5.99681711     -5.62261764      0.22783539
 B              -0.22511094     11.59373042     14.96977932       5       0      -1       0      22      2.39957679     -0.26615455     -1.88428721
 B               2.20084220     11.78686372     15.02212167       5       0      -1      -1      22      5.55622418     -2.64999655     -1.69974034
 B               4.81713549     11.60770916     15.12011486       5      -1      -1      -1      21     -1.35029242      1.29253362      2.04977662
 B               7.42834478     11.57899886     15.21047182       5      -1      -1      -1      22      2.53235829      5.30520025      0.99671187
 B               9.95735860     11.64506657     14.87539364       5      -1      -1       0      24     -5.07794672      3.84786531      1.69000070
 B              12.32217859     11.54408724     14.82675863       5      -1      -1       0      21      2.91958120      4.15519538      2.38196379
 B              -6.19415565     13.74787383     15.00949198       5       0      -1      -1      22      2.04138256     -0.13917479     -0.81919591
 B              -3.72912604     13.78298653     15.01408872       5       0      -1      -1      22     -0.55078414      5.96761538      0.12945474
 B              -1.17805981     13.94401970     15.05351012       5       0      -1      -1      22     -0.13496172     -2.55792231     -0.91212617
 B               1.41425440     14.01887277     14.82732660       5       0      -1       0      23     -1.83743568     -2.43911098      2.11600870
 B               3.82145804     13.83892333     15.02612507       5      -1      -1      -1      20      6.37853296     -4.13357175      0.00435114
 B               6.51025670     13.70712838     15.23583971       5      -1      -1      -1      22      0.95555285      2.83906222     -1.34273122
 B               8.86386191     13.98318776     15.01728105       5      -1      -1      -1      22      3.57894300     -5.77920203     -0.75883996
 B              11.35623381     13.64497361     14.92477485       5      -1      -1       0      24     -3.48061623     -0.08234501     -0.04459069
 B              -7.66727149     16.55280896     15.24831067       5       0      -1      -1      23      5.74782624     -8.25819069     -2.17113828
 B              -5.00402152     15.98080234     15.05630351       5       0      -1      -1      23      2.11534285      4.76856524     -0.30610737
 B              -2.35178818     15.86619016     14.85961988       5       0      -1       0      23      3.48150615      1.08903957      0.31207821
 B              -0.22395503     16.01553498     14.94782363       5       0      -1       0      23      0.78556617     -6.98119698      0.61849373
 B               2.43923295     15.81724756     15.21138640       5      -1      -1      -1      21     -1.52412411      5.49386302     -2.42456794
 B               4.98090501     15.95996591     14.92858066       5      -1      -1       0      23      1.16132131     -3.72761552      1.83458509
 B               7.78597459     16.05918752     15.21106456       5      -1      -1      -1      21     -1.54861500      5.68730823     -2.26257386
 B               9.99339085     16.01789649     14.60323536       5      -1      -1       0      23     -8.36596125     -3.00347595      4.35293545
