 128
 energy=-574.40841629613317 cutoff=4.00000000 nneightol=1.20000000 pbc="T T T" Lattice="20.07638462       0.00000000       0.00000000     -10.03819231      17.38665923       0.00000000       0.00000000       0.00000000      30.00000000" Properties=species:S:1:pos:R:3:Z:I:1:map_shift:I:3:n_neighb:I:1:force:R:3
 Ti              6.30920651      9.41636603     16.36482936      22      -1      -1      -1      19      0.01462362      0.88386328      0.16148787
 N               4.76692391     10.24335299     15.37188654       7      -1      -1      -1      21      5.51118632     -2.83914744      3.18312826
 N               0.20834590      1.36526091     14.98866949       7       0       0       0      24     -7.01899496      0.28456491      0.65439307
 N               2.32742358      1.61116085     14.97029765       7       0       0       0      22      7.14778084     -9.10340173      0.62866534
 N               4.97978150      1.28046857     15.00452765       7       0       0      -1      23      1.15996658      5.70623749     -1.43322177
 N               7.49908394      1.42409782     14.97324987       7       0       0       0      24      3.96078297      2.54248556     -0.25213038
 N              10.18111332      1.41988868     15.13350919       7      -1       0      -1      24     -2.98435740      0.26872080     -3.00427561
 N              12.46183837      1.40616867     15.14767251       7      -1       0      -1      22      2.80318219      5.02453388     -3.00979391
 N              14.87339925      1.51505970     15.04607687       7      -1       0      -1      24      5.23124012      0.08195778     -0.62392275
 N              17.54277221      1.59379039     14.85882843       7      -1       0       0      23      2.30137371     -1.20267679      3.73321930
 N              -1.35048387      3.50656427     14.97370781       7       0       0       0      23     11.53043515      5.38690405     -1.18784125
 N               1.23713463      3.70015189     15.03189225       7       0       0      -1      24     -0.17810012     -6.43263378     -1.76101552
 N               3.82853389      3.63658383     14.87985509       7       0       0       0      24     -4.25149234     -3.34538235     -0.09622513
 N               6.28251659      3.51074689     14.88332140       7       0       0       0      24     -3.16213873      3.34501326     -0.51525599
 N               8.82554575      3.69325381     15.03239261       7      -1       0      -1      23     -2.56696637     -3.38541720     -2.93816140
 N              11.32917811      3.73706039     15.16151323       7      -1       0      -1      24     -0.65445257     -5.13882369     -3.00699497
 N              13.83444228      3.49821611     15.00733346       7      -1       0      -1      23      0.23646056      7.57828975      0.48326395
 N              16.41196128      3.63388108     15.02712989       7      -1       0      -1      22     -7.08668370     -4.07003559      0.35341786
 N              -2.53054650      5.87809371     15.00533029       7       0       0      -1      24      3.85410309     -3.22858466     -0.78674533
 N              -0.08302388      5.72531998     14.98499017       7       0       0       0      23     -1.43007085      4.57014103     -0.88352377
 N               2.52641249      5.86177845     15.01689658       7       0       0      -1      23     -1.93586713     -3.80304169     -1.65997586
 N               4.92380572      5.66369634     14.89880354       7       0       0       0      21      6.05593446      6.29757700      0.01156006
 N               7.61363489      5.74660384     14.86119264       7      -1       0       0      24      0.62162521      3.51858841      0.63969758
 N               9.94832782      5.72953547     14.99738027       7      -1       0       0      23      6.15303164      6.42497108      0.86448650
 N              12.55014055      5.71737069     14.80681578       7      -1       0       0      23     -2.19288021      2.05065109      3.39870323
 N              15.03175883      5.88458334     14.90802466       7      -1       0       0      24     -1.00607085     -3.37206307      2.77716236
 N              -3.79996036      7.95600377     15.02669387       7       0       0      -1      24      2.16905597     -1.14106356     -0.69369460
 N              -1.15182827      7.79308575     14.96809049       7       0       0       0      22     -1.62146307      9.05382178     -0.54293809
 N               1.10972740      8.10712224     15.01552938       7       0       0      -1      23      9.40755890    -10.08344316      0.29213102
 N               3.84760332      7.96785759     15.11207266       7       0       0      -1      23     -7.29676936      1.05943878     -0.61221905
 N               6.28563246      7.76131204     15.44106481       7      -1       0      -1      24     -4.46692902      1.91818406      0.43645939
 N               8.97075145      7.90593935     15.03719993       7      -1       0      -1      22    -13.53697827      7.42486553      2.35190698
 N              11.21406518      8.04271908     14.90182129       7      -1       0       0      24      3.14576226     -8.08163470      2.17163296
 N              13.92937923      8.04867820     14.89964659       7      -1       0       0      22    -12.22034741      1.53219791     -0.04911140
 N              -5.04145730     10.25168996     15.04913972       7       0      -1      -1      23     -0.80305813     -4.63809451     -1.88038697
 N              -2.57968448     10.20689319     15.07006933       7       0      -1      -1      24      2.50990274    -12.76747325     -0.53052110
 N               0.02084917     10.00368890     14.91409460       7       0      -1       0      23     -2.84209910      2.62979748      0.04421494
 N               2.54087256     10.10810944     14.84923600       7       0      -1       0      24      0.68832324      0.25341123      1.62724250
 N               7.53278741     10.17408498     15.47000147       7      -1      -1      -1      24      6.28503291      3.27861913     -0.56221005
 N              10.09635864     10.10399965     14.96837182       7      -1      -1       0      24      1.86126852      4.39206438      0.40362207
 N              12.66733783     10.23956249     15.03158620       7      -1      -1      -1      23     -3.71845455     -3.22391735     -1.08061382
 N              -6.36377468     12.20940550     14.98323563       7       0      -1       0      23      0.77524452      6.14144458      0.02589946
 N              -3.75660366     12.34433987     15.01101799       7       0      -1      -1      24     -0.81238978     -0.30659572     -0.72304745
 N              -1.19011299     12.55297502     14.99147979       7       0      -1       0      23     -4.57444895    -15.59910335     -0.21040911
 N               1.07081615     12.42584024     14.87579826       7       0      -1       0      23      7.91635760      0.23805723      0.87835461
 N               3.91206637     12.29616261     14.98730687       7      -1      -1       0      23    -12.21821568      6.78381687     -1.08914132
 N               6.23815492     12.17808991     15.16665271       7      -1      -1      -1      24     -3.70880104      5.68031895      0.95109866
 N               8.84003648     12.36686220     14.89799241       7      -1      -1       0      23     -2.31901591      1.54881205      1.69035873
 N              11.21908247     12.32868412     14.93619342       7      -1      -1       0      23      7.84741240      0.70715171     -0.07582588
 N              -7.52780033     14.32693731     14.85361148       7       0      -1       0      22      1.40714873      1.94017415      1.92990128
 N              -5.09418516     14.53001534     15.09499344       7       0      -1      -1      24      4.14811027     -2.07851350     -1.26122922
 N              -2.43129171     14.51031226     15.02903497       7       0      -1      -1      23     -2.75805642     -5.32066913     -1.15694480
 N               0.04403385     14.40679672     14.98832356       7       0      -1       0      24     -2.33356177      2.86400001     -0.48515300
 N               2.39565233     14.49116143     14.97651036       7      -1      -1       0      23     11.58458676      5.32470888      0.31503544
 N               5.14201070     14.45676855     15.00945193       7      -1      -1      -1      23    -10.21670773      0.57435186     -0.72640519
 N               7.58083011     14.59904657     14.84658224       7      -1      -1       0      24      0.06063777     -0.91238665      5.14370594
 N              10.03383426     14.45200299     14.84517777       7      -1      -1       0      24      6.83645912      0.14291016      0.55701497
 N              -8.86807576     16.85826773     14.97221561       7       0      -1       0      23      1.36902438    -12.40679384      1.04905777
 N              -6.24673413     16.65975883     15.01427596       7       0      -1      -1      24     -0.45381960      3.45479479      0.84949684
 N              -3.73774445     16.64078094     15.06430083       7       0      -1      -1      23      6.88429150      2.00034169     -2.13463664
 N              -1.37481047     16.69110499     15.01373589       7       0      -1      -1      24      4.35791884     -1.51814577     -0.46573748
 N               1.34253186     16.77414510     15.10761653       7      -1      -1      -1      24     -9.55493620     -9.34654662      0.07004985
 N               3.64445102     16.58338882     15.05750916       7      -1      -1      -1      23      4.99611165      3.68493726     -2.00442552
 N               6.46620596     16.49541853     14.95360608       7      -1      -1       0      21    -13.55798796      7.92942857      0.41599688
 N               8.69398270     16.69290671     14.90119168       7      -1      -1       0      23      5.16014850      1.71690276      2.30806773
 B               1.34815146      0.67710838     15.02522285       5       0       0      -1      23     -2.37180377      4.84642078     -0.18821066
 B               3.68353804      0.82361653     15.03989570       5       0       0      -1      21     -1.44904095     -4.91953559     -0.67431610
 B               6.39593231      0.72889718     14.84116664       5       0       0       0      24     -6.69708511     -4.23079662      2.27425242
 B               8.78278889      0.79211217     15.11004098       5       0       0      -1      23      2.69337861     -2.08868717     -1.04056921
 B              11.41896625      0.55299682     14.89689649       5      -1       0       0      23     -4.38979719     12.49310360      1.47188900
 B              13.68754247      0.90207916     14.85047512       5      -1       0       0      22      0.09925456     -6.36223093      3.13043074
 B              16.45752889      0.71648273     15.17466233       5      -1       0      -1      24     -3.21202035     -0.78212809     -3.65118302
 B              18.82218786      0.71282414     15.12786202       5      -1       0      -1      23      1.30148580      2.91218890     -3.37427077
 B               0.06559131      2.74194271     14.85940735       5       0       0       0      23      0.96735960      2.74398161      2.08752353
 B               2.62834967      2.76361731     14.93323474       5       0       0       0      23     -3.40412504     13.48586656      0.08126290
 B               4.91635665      2.84646735     14.86682207       5       0       0       0      23      6.05542647     -2.07817595      0.76677784
 B               7.44548912      2.86138221     14.89778062       5       0       0       0      23      4.16861326      1.35739943      1.04965973
 B               9.97470675      2.91122486     14.77155737       5      -1       0       0      24      4.09509126     -1.14729053      5.45292457
 B              12.64322973      2.94347542     14.92502817       5      -1       0       0      24     -6.52248589     -3.01556245      2.82049429
 B              15.04346914      2.95278925     14.93862812       5      -1       0       0      23      3.59589594     -3.50926833      1.22024280
 B              17.61820546      3.12990630     15.13534992       5      -1       0      -1      22     -6.12540947    -11.93754547     -0.95203129
 B              -1.28653965      5.02841863     14.93353490       5       0       0       0      22     -1.83432501      0.45248554      0.74860395
 B               1.00708401      5.00889942     14.82090772       5       0       0       0      23      8.60805082      3.10849829      1.76859359
 B               3.75502820      5.03981214     14.88332657       5       0       0       0      24     -2.99167457      0.33183159      0.45683162
 B               6.39458102      5.14142327     14.89687754       5       0       0       0      23     -4.69457745     -5.06916035     -0.46797323
 B               8.92623621      5.09419467     14.77481458       5      -1       0       0      22     -8.78028437     -3.59252629      1.52919343
 B              11.13884865      5.03560626     15.00452537       5      -1       0      -1      24      4.60258406      3.33523365     -0.49053499
 B              13.78071849      5.11714378     15.19675441       5      -1       0      -1      23      2.29861070     -2.09605596     -4.67990983
 B              16.47983023      4.87327028     14.99256448       5      -1       0       0      23     -3.49395241     12.82971603     -0.29850060
 B              -2.38285452      7.35974417     14.89082766       5       0       0       0      23     -7.00241449     -5.79566606      1.44969994
 B               0.10397127      7.34658997     14.94815772       5       0       0       0      23     -4.27296695     -8.69231895      0.23706715
 B               2.55037749      7.16689953     14.91186919       5       0       0       0      23     -0.84126417      4.26269661      1.61769927
 B               4.91646812      7.29599711     15.04591854       5       0       0      -1      21      5.34970672     -8.03199491      0.92955705
 B               7.42435015      7.20232472     15.30332370       5      -1       0      -1      23      7.56084009     -3.99961004     -3.91078490
 B               9.86470246      7.23116656     15.11448999       5      -1       0      -1      22     13.22157175     -5.23466006     -1.61943455
 B              12.55332836      7.15527301     15.10317926       5      -1       0      -1      23     -2.38885377      2.05117199     -3.87768192
 B              14.87960973      7.32611610     15.07312027       5      -1       0      -1      23     12.13823278     -5.74173796     -0.94582348
 B              -3.76657295      9.28165865     14.91983479       5       0      -1       0      23     -2.93626479      6.87132812      1.85831129
 B              -1.32349198      9.35921178     14.95837744       5       0      -1       0      23      4.40368837     -0.23576024      0.60759386
 B               1.34262021      9.27651058     14.87260119       5       0      -1       0      23     -2.27143974     12.29761634     -0.32953220
 B               3.84965889      9.41812421     15.23568867       5       0      -1      -1      23    -10.26058400     -2.13084906     -2.95482703
 B               8.89728662      9.51894826     15.26243710       5      -1      -1      -1      22     -1.85987522     -2.98953354     -1.28885755
 B              11.35523240      9.33653553     15.02696995       5      -1      -1      -1      23     -0.25420844      6.44515988     -0.64963547
 B              13.78326673      9.45632046     14.77069725       5      -1      -1       0      23      3.56561653      2.18662047      3.26110233
 B              -5.24577165     11.64470952     15.08712874       5       0      -1      -1      23     12.70898820     -3.16769218     -0.56549978
 B              -2.41285865     11.36825851     14.91759805       5       0      -1       0      23     -3.08769221     16.02232282      0.46266590
 B              -0.06822133     11.80907608     14.98079439       5       0      -1       0      23      1.22381225     -6.47311038     -0.56337450
 B               2.44492796     11.58089997     15.07830343       5       0      -1      -1      22     -1.54435046     -0.13069039     -3.00157606
 B               4.81483678     11.52398296     15.18593118       5      -1      -1      -1      22     11.35837049      1.60221838      0.61527173
 B               7.47294730     11.73421799     15.16375077       5      -1      -1      -1      22      3.41941172     -3.44669043     -0.01284523
 B              10.10444698     11.71927945     14.88386695       5      -1      -1       0      22     -4.43046374     -6.31429494      0.73591819
 B              12.63518782     11.61235853     14.92392206       5      -1      -1       0      24    -10.31732319     -2.79505524      0.28165667
 B              -6.23239967     13.58100095     15.04642370       5       0      -1      -1      22     -1.95179049      6.63592210     -0.86564720
 B              -3.75708062     13.85888223     14.90897452       5       0      -1       0      23     -0.25620406     -2.82234157      2.32277652
 B              -1.29533170     13.64932749     14.97811728       5       0      -1       0      23      3.11782630     15.35232405      0.09982376
 B               1.36963259     13.88208454     14.89987889       5       0      -1       0      22     -9.53716920     -6.61143006      0.15980711
 B               3.83200373     13.75876570     14.97171084       5      -1      -1       0      23     -2.04508553      0.17993280      0.28650815
 B               6.19404995     13.90798189     15.20919703       5      -1      -1      -1      23     13.64365555     -6.98616334     -2.02726840
 B               8.96243653     13.82426227     15.10553806       5      -1      -1      -1      23    -10.85204202     -2.24857498     -2.57699860
 B              11.34441380     13.72554707     14.91636037       5      -1      -1       0      22     -2.13770055      0.14692229     -0.60750302
 B              -7.51528726     16.03716152     15.18601699       5       0      -1      -1      24     -1.19634522     -0.47696375     -3.69599698
 B              -4.82564806     16.01036770     14.97569787       5       0      -1       0      23     -9.91959286     -2.72849602      1.16196405
 B              -2.43762833     15.79409018     14.87284393       5       0      -1       0      23     -2.22716141      6.27054851      1.88391988
 B              -0.03848493     15.83456248     14.95884297       5       0      -1       0      24     -0.82025866      1.05729110      1.16518274
 B               2.38575117     16.11378897     15.04663066       5      -1      -1      -1      23      6.38383342     -8.42928174     -0.18661042
 B               4.92905565     15.78015051     14.90745397       5      -1      -1       0      22      1.52064807      7.49827687      1.30893013
 B               7.52285660     16.13859605     15.23176546       5      -1      -1      -1      23      6.95056938    -12.44391831     -2.44271608
 B               9.88537788     15.75881188     14.93694876       5      -1      -1       0      22      0.81514216      9.08525749     -0.32072210
