 128
 energy=-564.45168640960401 cutoff=4.00000000 nneightol=1.20000000 pbc="T T T" Lattice="20.07638462       0.00000000       0.00000000     -10.03819231      17.38665923       0.00000000       0.00000000       0.00000000      30.00000000" Properties=species:S:1:pos:R:3:Z:I:1:map_shift:I:3:n_neighb:I:1:force:R:3
 Ti              6.35406282      9.44595485     16.40338219      22      -1      -1      -1      20     -0.96391473     -0.69127758     -0.50542673
 N               4.84046803      9.99167999     15.46165762       7      -1      -1      -1      22     -2.71615648      3.43877050      0.18969803
 N               0.15253248      1.15602367     15.13850632       7       0       0      -1      23      7.54707238      3.77672070      0.35061505
 N               2.40267737      1.79181817     14.91075874       7       0       0       0      22      0.59084832     -2.81807031      0.98158832
 N               4.88037073      1.06991196     14.99462966       7       0       0       0      22      3.96964015      0.44623025     -0.68774191
 N               7.70389109      1.50150547     14.86647181       7       0       0       0      24      0.81110169     -1.77605824      1.18463360
 N              10.34696497      1.49908366     15.09576132       7      -1       0      -1      24     -4.86858338      5.35540258     -0.93072928
 N              12.29672919      1.64502720     15.32735174       7      -1       0      -1      23      0.83285283     -5.06373690     -2.10658842
 N              14.37078310      1.71012214     15.01210368       7      -1       0      -1      22     -2.62111287      0.09248466     -1.68774298
 N              17.65793181      1.81708500     14.82514000       7      -1       0       0      24      0.78095324    -11.05530734      0.05270670
 N              -1.06034696      3.36948693     14.89671082       7       0       0       0      22     -4.82206025      1.06696121      1.79004900
 N               1.16602391      3.58527102     14.99918527       7       0       0       0      24     -7.39152858      6.60239846     -1.24712467
 N               3.81614014      3.57939413     14.82848322       7       0       0       0      23     -1.70993689      2.28429838      0.50752552
 N               6.09120409      3.48922422     14.76032549       7       0       0       0      23      6.59176602     -2.56132335      0.80886680
 N               8.73613717      3.62662405     15.04949606       7      -1       0      -1      23      3.00007274     -0.29157540     -2.05187636
 N              11.30138886      3.68795020     15.09626134       7      -1       0      -1      23     -2.83488527      4.23017038     -0.93919452
 N              13.85005724      3.58424574     15.04494408       7      -1       0      -1      22     -1.51571340     -8.21409439     -0.57210340
 N              16.28355511      3.59636711     15.07709687       7      -1       0      -1      22      4.84503776      0.71175511      0.75489734
 N              -2.24937382      5.79321829     15.01816732       7       0       0      -1      22     -3.64840698     -1.06810992     -0.99003309
 N              -0.47873438      5.73301064     14.99966379       7       0       0       0      23      3.94745657     -3.55554451     -1.20931906
 N               2.30357204      5.80113337     14.94003975       7       0       0       0      24      0.75114198     -2.23456585     -1.36896055
 N               5.03653776      5.74971419     14.83027923       7       0       0       0      23     -3.25014688     -6.94351083     -0.72678417
 N               7.66457547      5.78885463     14.82190365       7      -1       0       0      22     -4.99634744     -3.24552375     -0.62154139
 N               9.95509958      5.74283669     15.11364994       7      -1       0      -1      22      2.02933881      0.16195124     -1.40790660
 N              12.37621902      5.54982272     14.81523033       7      -1       0       0      23      8.29234758      2.48908673      0.96809604
 N              14.91098442      5.80712713     14.88527452       7      -1       0       0      22      5.50396257     -0.42662343      1.07881748
 N              -3.66047444      7.87157957     14.99007798       7       0       0       0      22     -2.05209775      3.28295018     -0.66229419
 N              -1.05339891      7.76619255     14.92807794       7       0       0       0      21      0.24329621     -9.13253679     -0.91834081
 N               1.54126817      7.93729852     14.97208120       7       0       0       0      23    -14.80194959      7.74548295     -0.56001844
 N               3.67114971      7.86454032     15.24008264       7       0       0      -1      20      5.85041061      0.48830062      0.01227840
 N               6.24184902      7.70289505     15.41099891       7      -1       0      -1      22      4.01954824     -0.55425519      0.87152364
 N               8.76157414      8.10351479     15.07807017       7      -1       0      -1      24      5.68650547     -4.36866285      1.65575996
 N              11.33594356      7.70123340     14.91508542       7      -1       0       0      23     -3.30065893      7.74695238      0.27709790
 N              13.71178876      8.24087410     14.84324243       7      -1       0       0      21      3.04221107     -1.78610605      0.17153355
 N              -5.05405620     10.25036413     15.02999857       7       0      -1      -1      24      0.27006223      5.37994640      0.15652548
 N              -2.52411596      9.64635009     15.03744931       7       0      -1      -1      21     -0.84985441     -1.29460145     -0.21474935
 N               0.01017332      9.88036544     14.92295188       7       0      -1       0      22     -0.65411862      5.40901141      0.63267134
 N               2.59450245     10.24119953     14.84672703       7       0      -1       0      23     -6.96263788      1.60095658      0.97251849
 N               7.74556105     10.27213716     15.57550684       7      -1      -1      -1      20      0.23670860     -0.76375483     -0.47132924
 N              10.26574856     10.32979653     14.99788524       7      -1      -1       0      22     -1.38337197     -6.44773406      0.89671729
 N              12.68620807     10.15666291     15.15594200       7      -1      -1      -1      22      1.25625444      0.32311856     -0.89925690
 N              -6.50965846     12.21635110     14.80898557       7       0      -1       0      21      5.40420282      2.35188492      2.00140291
 N              -3.80356608     12.44539555     15.04848386       7       0      -1      -1      22     -2.06289333     -0.72686986      0.46807276
 N              -1.43246721     12.41357030     14.83875018       7       0      -1       0      21      5.81871202      5.43951624      0.77405036
 N               1.07936575     12.55945482     14.82346609       7       0      -1       0      21     -2.27105044     -1.37112262      1.03299778
 N               3.53095207     12.45272684     14.90939076       7      -1      -1       0      21      0.54331342     -2.84876595      1.74876386
 N               6.12245087     12.27532131     15.33847224       7      -1      -1      -1      21      3.26359624     -0.13774581     -0.67459900
 N               8.61585821     12.51778984     15.00206761       7      -1      -1      -1      21     -0.27428896     -2.12523534      0.06224124
 N              11.16153221     12.24014895     15.01654680       7      -1      -1      -1      22     -1.52792669      1.21568673     -0.14865917
 N              -7.41227292     13.76236058     14.74923036       7       0      -1       0      24     -2.95761868     -1.09861264     -1.89215762
 N              -4.90956252     14.62463395     15.02588853       7       0      -1      -1      22     -2.89980557     -2.51359166      0.05526696
 N              -2.50309624     14.47145830     15.05365182       7       0      -1      -1      22      2.32628300      1.37828764     -1.46663087
 N               0.09160413     14.53955365     15.11584396       7       0      -1      -1      23      1.32653621      1.46227696     -0.91300618
 N               2.78293389     14.60663916     14.98932305       7      -1      -1       0      22     -7.12486727     -2.95607151     -1.12043368
 N               5.16835668     14.34608645     15.10194689       7      -1      -1      -1      22      0.66658793      4.46783197     -0.35539605
 N               7.95436456     14.83208185     14.98760183       7      -1      -1       0      22     -9.23591339     -6.76592629      1.16390997
 N              10.16159191     14.46938153     14.82061229       7      -1      -1       0      23     -1.58799545      4.57057244     -0.31819692
 N              -9.01935975     16.59161780     14.92508698       7       0      -1       0      23      7.25825430      9.19054031      0.98624633
 N              -6.23634320     16.95595192     14.90522237       7       0      -1       0      23     -0.53373338     -7.18587211      1.73946851
 N              -3.25297626     16.61133216     15.17488553       7       0      -1      -1      23     -9.93602751      1.43392830      0.66148703
 N              -1.25560128     16.72212392     14.92418512       7       0      -1       0      23     -1.87287016      3.20165078     -0.70184057
 N               0.87822443     16.48548195     15.06840411       7      -1      -1      -1      23     11.71489154      5.97606269     -0.23594349
 N               3.72285541     16.70550364     15.04509984       7      -1      -1      -1      22     -2.64651663     -2.25254098     -0.59624407
 N               6.36014866     16.43516374     14.92583505       7      -1      -1       0      22      2.50913226     -0.03208258      1.92376378
 N               8.73052567     17.04520306     14.95657236       7      -1      -1       0      21      4.05127803     -7.53574247     -0.40127672
 B               1.44045841      0.66248797     15.01378569       5       0       0      -1      22     -2.11274614      2.88845881     -1.33225489
 B               3.55294545      0.77919429     15.02691568       5       0       0      -1      21     -0.45929878     10.54760476     -0.81441710
 B               6.30637252      0.50830639     14.83918144       5       0       0       0      22      2.57895733      3.36311261      2.40638515
 B               9.08080780      0.76625000     15.20462197       5       0       0      -1      24     -3.21823578      0.89934859     -3.72447273
 B              11.28672965      0.76589460     14.77993516       5      -1       0       0      24      2.93616941     -5.39743997      3.37681235
 B              13.44308458      0.73859557     14.93099799       5      -1       0       0      23     -0.28308617      2.27610328      2.97094062
 B              16.56066654      0.52904343     15.12560406       5      -1       0      -1      21      3.08237562     -0.51210091     -2.14045275
 B              19.01630985      1.06968754     15.06435266       5      -1       0      -1      22    -10.21453177     -4.66436126     -1.86417584
 B               0.14688659      2.62769780     14.78778331       5       0       0       0      24     -2.53351395     -1.22159931      2.42682979
 B               2.35316627      3.45916171     14.94917616       5       0       0       0      25      9.62788407     -9.11264743     -0.78602847
 B               5.02514312      2.56343022     14.82361386       5       0       0       0      24     -5.23427463      3.71273105      0.51529199
 B               7.52241494      2.92583456     14.94905632       5       0       0       0      23     -1.32508059     -2.03561919     -1.19292307
 B              10.15669645      3.04228816     14.86144269       5      -1       0       0      24     -2.61941254     -2.75791341      3.00362812
 B              12.49807515      2.91884633     15.10505301       5      -1       0      -1      22      4.18570406      1.19351181     -0.12137453
 B              15.14143644      2.78784287     14.84199328       5      -1       0       0      23     -3.51465243      6.10728953      2.40251406
 B              17.59168939      2.86414401     15.36282020       5      -1       0      -1      22      0.79604259     11.32516048     -2.92828293
 B              -1.40685942      4.75043076     14.91582540       5       0       0       0      23      1.26428429      4.53488295     -0.49041189
 B               1.02726611      5.15946286     14.73704539       5       0       0       0      23     -4.00613180     -0.43129889      3.69772805
 B               3.61339021      5.03004002     14.88568162       5       0       0       0      23      3.22030177     -0.40347665     -0.60355669
 B               6.22112243      4.88836160     14.84700110       5       0       0       0      21      0.03210950      3.80095619     -0.65724562
 B               8.70927717      4.97706868     14.71295474       5      -1       0       0      24      4.68509666      2.09953126      3.90601485
 B              11.27637904      5.10908358     14.97349733       5      -1       0       0      23     -8.44031673     -4.54961670      1.46097564
 B              13.87473290      4.80768722     15.08384952       5      -1       0      -1      23     -3.05353780      7.48656472     -2.13621053
 B              16.44204259      5.25869473     14.87340246       5      -1       0       0      21     -0.53111489     -4.43364209      2.08464680
 B              -2.41972785      7.19199189     14.86178641       5       0       0       0      23      5.46849453      1.73562132      1.75478469
 B               0.16591779      6.90869954     14.97944123       5       0       0       0      23      0.02146096      7.18154253     -0.37040888
 B               2.49745418      7.44819039     14.91864246       5       0       0       0      21      8.95126814    -12.13834809     -0.26340538
 B               5.06972404      7.03608623     14.98913154       5       0       0       0      22     -3.67504433      6.30662489      2.97763170
 B               7.80198302      7.09591095     15.28449444       5      -1       0      -1      20     -5.55188018      1.92663265     -1.99894216
 B              10.21161849      7.16483685     15.12587401       5      -1       0      -1      22     -9.28161523     -1.53727344     -0.80716762
 B              12.34294962      7.02120594     15.01262163       5      -1       0      -1      23     11.45694080     -1.59154078     -1.60818054
 B              15.17031969      7.27016605     15.06059265       5      -1       0      -1      24     -5.90951393      1.73637781     -2.52648743
 B              -3.98950079      9.46838633     14.95024368       5       0      -1       0      24      8.04730758     -5.05109537      0.93490681
 B              -1.13258858      9.01399759     15.04832174       5       0      -1      -1      23     -5.91974992      7.25547146     -0.52335199
 B               1.31203622      9.63594802     14.73520114       5       0      -1       0      22      2.58410442     -6.34352900      2.00761905
 B               3.46787905      9.28388237     15.36869816       5       0      -1      -1      21      4.14121527      0.18882575     -2.22365316
 B               8.90078434      9.42544404     15.33295029       5      -1      -1      -1      21      2.74747658      5.00011414     -2.09443296
 B              11.59559278      9.58351108     15.07544437       5      -1      -1      -1      24     -6.53964001     -4.53208069     -1.09800807
 B              13.89821510      9.65679341     14.70257389       5      -1      -1       0      24     -4.20222508     -5.77913544      3.07235536
 B              -4.97180905     11.70985746     15.20345996       5       0      -1      -1      23     -7.23387519     -0.96010468     -3.65227967
 B              -2.61195856     11.86967986     14.82013009       5       0      -1       0      22      0.61945576     -2.87183994      1.21005966
 B              -0.20529304     11.64485392     14.99893210       5       0      -1       0      22      0.38270215     -0.19084378     -2.34158725
 B               2.16095852     11.73723094     15.09566907       5       0      -1      -1      22      8.21282838     -0.03975263     -3.09886540
 B               4.86976087     11.58509075     15.11910046       5      -1      -1      -1      21     -2.87794390     -0.27260506      1.73268682
 B               7.41039456     11.60855600     15.19216084       5      -1      -1      -1      21      2.47301565      2.85774456      1.32478904
 B               9.97197761     11.61091261     14.84408603       5      -1      -1       0      24     -2.75389499      6.20175318      2.06705958
 B              12.24412101     11.54350304     14.81892018       5      -1      -1       0      21      7.39435286      1.53199765      2.14193336
 B              -6.23144576     13.72231898     15.02784484       5       0      -1      -1      23      4.86878040     -1.38255281     -0.66933055
 B              -3.72542352     13.80657500     14.96297112       5       0      -1       0      22     -0.63955568      3.60639767      0.95798414
 B              -1.11591965     14.01434222     15.05205819       5       0      -1      -1      22     -5.58193424     -6.81490156     -0.85548840
 B               1.36314563     13.97134313     14.80899277       5       0      -1       0      24      1.08702902      0.08053973      2.24113092
 B               3.82221628     13.82237869     15.01444958       5      -1      -1      -1      20      4.94065462     -2.68651386      0.10493573
 B               6.55102945     13.74898026     15.31108921       5      -1      -1      -1      22     -2.06820912      0.62665687     -3.47033908
 B               8.83123843     13.96956447     15.10302157       5      -1      -1      -1      22      6.34568029     -4.69225244     -1.99521443
 B              11.36058466     13.64754053     14.92731766       5      -1      -1       0      24     -2.31697977     -0.05869201     -0.04629601
 B              -7.65459425     16.50912582     15.30322430       5       0      -1      -1      24      3.34053461     -6.63191188     -3.03432598
 B              -4.98920826     16.02856151     15.01747016       5       0      -1      -1      23      1.81024732     -0.78036026      0.56461570
 B              -2.37495483     15.88743621     14.83316005       5       0      -1       0      23      4.09001779     -4.22330225      0.38119442
 B              -0.21359060     16.00231277     14.92579100       5       0      -1       0      23      0.08500091     -5.61527849      0.66753844
 B               2.43541567     15.81417374     15.20703783       5      -1      -1      -1      22     -1.21889966      7.25548112     -1.85545505
 B               4.93608303     15.94648527     14.87116393       5      -1      -1       0      23      2.22996625     -3.57702152      2.84852136
 B               7.79015054     15.98366677     15.30513276       5      -1      -1      -1      21     -2.54283825     11.78605649     -3.23106174
 B               9.93162265     16.00081709     14.62642109       5      -1      -1       0      23     -6.55411360     -3.70047748      3.98622955
