 128
 energy=-555.82852255433511 cutoff=4.00000000 nneightol=1.20000000 pbc="T T T" Lattice="20.07638462       0.00000000       0.00000000     -10.03819231      17.38665923       0.00000000       0.00000000       0.00000000      30.00000000" Properties=species:S:1:pos:R:3:Z:I:1:map_shift:I:3:n_neighb:I:1:force:R:3
 Ti              6.34894164      9.44043130     16.39736233      22      -1      -1      -1      19     -1.13601047     -0.49655443     -0.52855822
 N               4.81436574     10.05261333     15.41397887       7      -1      -1      -1      22     -1.91268053      2.22955495      1.17522496
 N               0.22865271      1.15881658     15.09479131       7       0       0      -1      23      0.99997801      3.47854431      0.72110653
 N               2.29946056      1.77848757     14.91844318       7       0       0       0      22      5.24133743     -2.09968890      0.52278596
 N               4.88045039      1.10330686     15.02085217       7       0       0      -1      22      2.75164067     -1.73860312     -1.31566276
 N               7.65113554      1.50044450     14.88453955       7       0       0       0      24      0.75499202     -1.51007938      0.66501058
 N              10.37682712      1.43168954     15.14878853       7      -1       0      -1      24     -5.66661826      5.92314847     -1.99501620
 N              12.31534941      1.58858277     15.35307215       7      -1       0      -1      23      0.59692801     -2.29844635     -3.64781153
 N              14.48530769      1.67330516     15.04714785       7      -1       0      -1      21     -2.01907382     -0.88598386     -2.05197724
 N              17.61591099      1.86939180     14.78021580       7      -1       0       0      24      1.35689668    -10.11391679      1.28506838
 N              -1.06483175      3.37419066     14.89403405       7       0       0       0      22     -7.12662111      1.31111250      1.92243031
 N               1.19697939      3.59579391     15.04666131       7       0       0      -1      24     -4.30262684      5.04910592     -2.32105744
 N               3.81477307      3.58457950     14.84039973       7       0       0       0      22     -0.03278452      1.63208976      0.05587297
 N               6.08392621      3.46734882     14.78321091       7       0       0       0      22      6.81195302      0.37224586      0.51220124
 N               8.75744961      3.67368848     15.11337135       7      -1       0      -1      23      0.61320138     -2.28180975     -4.07893593
 N              11.35575537      3.71340122     15.15867141       7      -1       0      -1      23     -6.21257419      1.70318033     -3.00928276
 N              13.87534026      3.55267495     15.04174973       7      -1       0      -1      21     -1.75008974     -3.66120482     -0.81380773
 N              16.28564228      3.56388121     15.05213427       7      -1       0      -1      22      6.24851173      2.87854799      1.53145396
 N              -2.31320002      5.83834725     15.03123454       7       0       0      -1      22     -1.18443187     -1.63160129     -1.05057699
 N              -0.42172738      5.75525857     15.02372928       7       0       0      -1      22      1.88237245     -5.00951848     -1.96836548
 N               2.36488856      5.84366711     14.99526932       7       0       0       0      24     -1.64807822     -1.89334634     -3.00051556
 N               5.00697334      5.76351302     14.85412438       7       0       0       0      23     -1.39962410     -7.41855611     -0.97883364
 N               7.72632026      5.81620851     14.83565564       7      -1       0       0      22     -6.87052954     -4.76856239     -1.10029596
 N               9.94254039      5.77723233     15.10553581       7      -1       0      -1      20      1.01190110     -3.79603533     -1.53159566
 N              12.39549987      5.55790472     14.74976817       7      -1       0       0      23      4.18922883      2.07223695      3.16500347
 N              14.90606681      5.85410395     14.83699387       7      -1       0       0      22      4.52195034     -2.05288440      2.91862400
 N              -3.69961888      7.84997732     15.01434988       7       0       0      -1      22     -0.09919916      4.13654885     -1.22084888
 N              -1.01548828      7.78516873     14.95646395       7       0       0       0      21     -2.05475769     -7.79693600     -1.54377511
 N               1.45072718      7.97562051     15.00206075       7       0       0      -1      23     -7.68875047      4.07069261     -1.41420149
 N               3.70476334      7.92614452     15.23766214       7       0       0      -1      20      3.39043010     -2.09386203     -1.15289201
 N               6.21045423      7.74005446     15.40543031       7      -1       0      -1      23      4.89798110     -1.94875885      0.99079688
 N               8.81933627      8.08030812     15.00457262       7      -1       0      -1      24      2.28175962     -3.08487083      4.41586150
 N              11.27916414      7.75351405     14.86705121       7      -1       0       0      23      0.72693010      5.11792288      1.57993811
 N              13.73723570      8.24225858     14.84290824       7      -1       0       0      21      3.68875173     -2.08556730      0.46992846
 N              -5.07794804     10.25860048     15.05578526       7       0      -1      -1      24      2.69044556      3.54038465     -0.15152533
 N              -2.54749211      9.75375530     15.07540075       7       0      -1      -1      20     -0.47014516      0.29500091     -1.57286086
 N               0.00601507      9.84259083     14.92174995       7       0      -1       0      22      1.22239784      5.88422670      0.27935571
 N               2.67095046     10.16070656     14.83559313       7       0      -1       0      23     -9.60376710      4.95370096      0.20454478
 N               7.63330525     10.22846032     15.56919621       7      -1      -1      -1      21      3.08837345      1.08365477     -1.22421002
 N              10.25685627     10.28250018     14.97212176       7      -1      -1       0      22     -2.42506532     -3.30890448      1.57790171
 N              12.71762548     10.21992024     15.15839923       7      -1      -1      -1      22     -1.38476270     -1.83916492     -1.79054274
 N              -6.54324990     12.19554632     14.82432018       7       0      -1       0      21      5.59835105      1.87222411      1.87713431
 N              -3.78824512     12.44011554     15.05369633       7       0      -1      -1      22     -0.93050266     -1.59689421     -0.44997376
 N              -1.40265657     12.42824205     14.87155793       7       0      -1       0      21      6.45833756      5.35333068      0.40520617
 N               1.03908073     12.62406129     14.81204268       7       0      -1       0      21      0.05091360     -6.88092430      1.86692101
 N               3.64012438     12.45581174     14.90718983       7      -1      -1       0      21     -0.43667990     -4.65935841      1.85715884
 N               6.04978368     12.18874113     15.28944267       7      -1      -1      -1      22      8.99734847      4.36386561      0.86482380
 N               8.68673487     12.50339256     14.95785116       7      -1      -1       0      22     -1.77274983     -2.18009754      1.29829176
 N              11.23668343     12.27220586     15.00104353       7      -1      -1      -1      22     -8.58213449      0.91906008      0.26376354
 N              -7.42698253     13.88295204     14.77843883       7       0      -1       0      25     -2.13736283     -1.20488825     -1.94425516
 N              -4.96354950     14.60419199     15.05811258       7       0      -1      -1      22     -1.44009843      0.98876730     -0.82977847
 N              -2.45451161     14.43492307     15.08107878       7       0      -1      -1      21      2.00227262      4.18059942     -2.42268666
 N               0.06277786     14.43984002     15.09589028       7       0      -1      -1      23      4.64568504      6.10611450     -0.41220360
 N               2.73009914     14.64090254     15.00304562       7      -1      -1      -1      22     -5.30437288     -6.33695530     -1.60079714
 N               5.14048447     14.33661978     15.07934208       7      -1      -1      -1      22      3.38738724      3.90446072      0.24528245
 N               7.89595631     14.86176399     14.86690366       7      -1      -1       0      22     -4.81525086     -9.32496856      3.35027395
 N              10.20748971     14.41517247     14.79484480       7      -1      -1       0      23     -6.52177930      4.80904649      1.54888644
 N              -9.04640679     16.64830216     14.91070778       7       0      -1       0      23      7.08435666      5.97436245      1.49476489
 N              -6.23253530     16.93043872     14.90275833       7       0      -1       0      22     -0.24529297     -6.82998122      1.47954946
 N              -3.27759500     16.62453278     15.18746507       7       0      -1      -1      23     -9.61593527      0.68412256     -0.70364920
 N              -1.32638064     16.71177446     14.95145917       7       0      -1       0      23      2.37462679      2.22894294     -0.64780106
 N               0.95953572     16.54644627     15.10284836       7      -1      -1      -1      23      6.14968893      2.82616571     -1.47198659
 N               3.66830717     16.63258610     15.08641036       7      -1      -1      -1      22     -0.70029841      2.64698068     -2.30034425
 N               6.37291689     16.42605384     14.87475123       7      -1      -1       0      22      2.72055905     -0.03999614      3.70095436
 N               8.69871407     16.99281851     14.89789020       7      -1      -1       0      22      1.86745701     -4.57936892      2.30785407
 B               1.46120004      0.69039708     15.03373472       5       0       0      -1      23     -2.97209951     -0.07775636     -1.60966721
 B               3.52657064      0.73156619     15.04633728       5       0       0      -1      22      0.52965305     10.73792253     -0.82556021
 B               6.31704463      0.51065048     14.75880988       5       0       0       0      22      2.48917518      4.18147544      4.10475306
 B               9.03266291      0.80722228     15.25619281       5       0       0      -1      25     -2.45827704     -1.05998103     -4.36814650
 B              11.33189793      0.77015183     14.71615232       5      -1       0       0      24      2.14415487     -6.69411720      4.39795251
 B              13.43313432      0.83257908     14.82002237       5      -1       0       0      23      2.75702199     -3.25933265      4.97514630
 B              16.57604734      0.57559678     15.22360051       5      -1       0      -1      21     -1.10887773     -0.37847906     -3.75315877
 B              18.99578611      1.01389175     15.15557171       5      -1       0      -1      22     -4.82527101     -4.43843731     -3.03270059
 B               0.18926222      2.60230439     14.73545577       5       0       0       0      24     -2.84249803      0.21170634      3.39951410
 B               2.44743216      3.38194740     14.94186487       5       0       0       0      25      3.35817843     -8.75129593     -0.22902508
 B               5.02796368      2.54849229     14.81503731       5       0       0       0      24     -5.23528503      7.47808113      0.65723982
 B               7.49636760      2.91474900     14.92948885       5       0       0       0      23     -1.10322880     -0.95550917     -0.19813466
 B              10.10484754      2.98181506     14.69746420       5      -1       0       0      23     -0.03242892      2.04109707      6.93849841
 B              12.49262160      2.89453395     15.00401717       5      -1       0      -1      22      4.71263688      2.57510129      2.24520126
 B              15.18316200      2.78875044     14.81846663       5      -1       0       0      23     -5.65080361      4.90811717      2.31030897
 B              17.55447630      2.88153394     15.38241994       5      -1       0      -1      22      1.75555563     10.11869235     -3.24012909
 B              -1.43742824      4.78685105     14.92005884       5       0       0       0      23      3.97310533      3.89969464     -0.46179750
 B               0.98773534      5.11853712     14.65839175       5       0       0       0      22     -1.49220631      0.15275173      5.83554021
 B               3.57806860      5.05492859     14.88162884       5       0       0       0      23      5.93845252     -2.44080467     -0.14344815
 B               6.29833588      4.95582823     14.87245282       5       0       0       0      22     -1.83871163      1.09935750     -0.85793898
 B               8.71775986      4.97468805     14.63415693       5      -1       0       0      23      5.45811865      3.03436327      5.40685472
 B              11.20937916      5.11732428     14.97688881       5      -1       0       0      23     -2.95223939     -3.30320941      0.93694795
 B              13.87056274      4.88936956     15.23751225       5      -1       0      -1      23     -2.45924562      1.35771084     -5.27529488
 B              16.52808171      5.19356952     14.88178793       5      -1       0       0      20     -3.71344893     -4.78789959      1.40186306
 B              -2.43398339      7.21890365     14.81678202       5       0       0       0      23      5.17431648      2.34106146      2.57495959
 B               0.18132361      6.95130111     14.96320632       5       0       0       0      23     -1.17041172      8.34083216      0.37903413
 B               2.51914094      7.40642478     14.87352190       5       0       0       0      21      2.70790480     -6.00058107      1.36321617
 B               5.05422745      7.04641145     14.93553401       5       0       0       0      21     -2.78477707      7.38336289      3.95537593
 B               7.71352660      7.05498203     15.37492388       5      -1       0      -1      20     -1.18714386      5.79202824     -3.87382921
 B              10.20603790      7.09633185     15.16988154       5      -1       0      -1      21     -9.45105475      2.77526511     -1.93497139
 B              12.35483920      7.03276907     15.12857701       5      -1       0      -1      22      6.60374709     -0.32024120     -3.85649496
 B              15.14727912      7.25516711     15.13649511       5      -1       0      -1      24     -6.17728622      1.88883644     -3.79308130
 B              -3.98503512      9.41376706     14.88767196       5       0      -1       0      23      5.85427039     -2.15330772      2.50468506
 B              -1.13328066      9.05109758     15.02633772       5       0      -1      -1      23     -4.90596582      4.97622629     -0.09747755
 B               1.35248718      9.63064454     14.72590804       5       0      -1       0      22      0.98454863     -7.44409805      2.38685597
 B               3.51266854      9.30328318     15.38016375       5       0      -1      -1      21      6.18113598      0.06418816     -1.50071890
 B               8.94041406      9.47880188     15.37531480       5      -1      -1      -1      21     -2.41696396     -0.69827070     -2.90110743
 B              11.55137597      9.53801367     15.09819066       5      -1      -1      -1      23     -1.53671308     -2.52418242     -1.57261607
 B              13.93436685      9.67962428     14.60675106       5      -1      -1       0      23     -6.44287386     -5.28101342      5.01746804
 B              -5.02111400     11.68512405     15.24925830       5       0      -1      -1      22     -4.57102519      0.89663811     -4.52950073
 B              -2.51453481     11.76684743     14.78266023       5       0      -1       0      23     -3.51469992     -3.13787884      2.63797493
 B              -0.17468851     11.72083604     15.02684104       5       0      -1      -1      22     -1.59812645      0.33152829     -2.53168911
 B               2.15395889     11.66521073     15.18386306       5       0      -1      -1      22      6.48395602      2.94882853     -4.86950526
 B               4.92506180     11.54780792     15.12826071       5      -1      -1      -1      21     -7.50071973     -2.01366162      0.69238861
 B               7.39899525     11.66894336     15.17360684       5      -1      -1      -1      21      1.26993578     -0.84814856      1.35613962
 B               9.97843486     11.60092010     14.81126877       5      -1      -1       0      22      0.97980865      5.94349702      2.51522818
 B              12.18404718     11.55244409     14.82026449       5      -1      -1       0      21     14.59520536     -0.01625050      1.03448267
 B              -6.25507428     13.67334426     15.05072694       5       0      -1      -1      23      4.29440829     -2.68857323     -0.88581668
 B              -3.72417528     13.86243056     14.89381656       5       0      -1       0      22     -0.56362905     -0.89391247      2.42180452
 B              -1.06699773     14.06934397     15.04413511       5       0      -1      -1      21    -12.27634397    -11.92713403     -0.78589429
 B               1.29672716     13.90404541     14.79633976       5       0      -1       0      24      5.06056682      4.39801899      2.09199794
 B               3.85274537     13.78247100     14.99783934       5      -1      -1       0      20      0.53021843      0.71857613      0.36372891
 B               6.59577726     13.81541539     15.39828998       5      -1      -1      -1      22     -7.27899113     -1.37063906     -6.10498259
 B               8.82391804     13.92173118     15.21592906       5      -1      -1      -1      23      5.72181661      0.02548360     -5.08227477
 B              11.35379470     13.65100674     14.93079730       5      -1      -1       0      24      0.29116704      0.05713443     -0.07998781
 B              -7.61705319     16.40370022     15.36447818       5       0      -1      -1      24     -0.30849688     -1.64230931     -4.07166716
 B              -4.95403568     16.09095348     14.96416416       5       0      -1       0      24      2.61434405     -5.70877921      2.06526771
 B              -2.38349811     15.89041514     14.79674654       5       0      -1       0      23      2.56039643     -5.69795073      1.37282026
 B              -0.19631387     15.94737783     14.89783811       5       0      -1       0      23      1.15295087     -2.51863615      1.46557444
 B               2.42386972     15.85910130     15.18870454       5      -1      -1      -1      22     -0.06045962      7.48182148     -1.12887633
 B               4.88428707     15.90283637     14.80516065       5      -1      -1       0      23      3.00756974     -2.76919382      4.22774541
 B               7.77948923     15.94902665     15.42322216       5      -1      -1      -1      21     -2.85253834     11.46418418     -5.56241705
 B               9.80152474     15.95021433     14.68658036       5      -1      -1       0      23      3.28422564     -2.96365197      1.81399259
