 128
 energy=-555.02954142567069 cutoff=4.00000000 nneightol=1.20000000 pbc="T T T" Lattice="20.07638462       0.00000000       0.00000000     -10.03819231      17.38665923       0.00000000       0.00000000       0.00000000      30.00000000" Properties=species:S:1:pos:R:3:Z:I:1:map_shift:I:3:n_neighb:I:1:force:R:3
 Ti              6.34678214      9.43836723     16.39514095      22      -1      -1      -1      18     -1.09548336     -0.38066106     -0.49133052
 N               4.80270431     10.07645242     15.39938523       7      -1      -1      -1      21     -1.26225407      1.49946969      1.56546889
 N               0.25779021      1.16462286     15.08105103       7       0       0      -1      23     -1.91932004      3.39188345      0.96156963
 N               2.27098903      1.77068631     14.92189035       7       0       0       0      22      6.41669051     -1.34883028      0.33081457
 N               4.88473077      1.11251038     15.02797494       7       0       0      -1      22      2.16481595     -1.76749695     -1.52967075
 N               7.63470775      1.49799029     14.89165193       7       0       0       0      24      0.54779041     -1.56946149      0.45186798
 N              10.37898590      1.41751740     15.16411655       7      -1       0      -1      24     -5.37404807      5.38592841     -2.54847969
 N              12.32247834      1.56572913     15.35708245       7      -1       0      -1      23      0.49614326     -1.23371408     -4.12255622
 N              14.52064994      1.65996757     15.05611833       7      -1       0      -1      21     -2.16432185     -0.78389651     -2.17899728
 N              17.60365543      1.87239802     14.76640643       7      -1       0       0      24      1.40294808     -9.17861865      2.27835443
 N              -1.07557490      3.37757179     14.89576384       7       0       0       0      22     -7.42735380      1.19902732      1.92463677
 N               1.20012096      3.60689235     15.05966615       7       0       0      -1      24     -2.71683188      4.01830771     -2.77847427
 N               3.81360868      3.58880167     14.84459646       7       0       0       0      22      0.83837529      1.32767767     -0.10371483
 N               6.09104550      3.45974206     14.79165061       7       0       0       0      22      6.11694423      1.19087244      0.34791517
 N               8.76609964      3.68666801     15.12965124       7      -1       0      -1      23     -0.02518663     -2.45318808     -4.66641082
 N              11.36588047      3.72506414     15.17593787       7      -1       0      -1      23     -5.96227090      0.70261266     -3.53469226
 N              13.88139868      3.53547196     15.03952964       7      -1       0      -1      22     -1.78463243     -1.82696545     -0.64128609
 N              16.29473143      3.55632455     15.04572805       7      -1       0      -1      22      5.95140237      3.65018975      1.62678619
 N              -2.33684792      5.85126544     15.03414545       7       0       0      -1      23     -0.49515397     -1.78712437     -1.05423564
 N              -0.39962181      5.75585531     15.02925510       7       0       0      -1      22      1.53507777     -4.55654063     -2.15426857
 N               2.38356016      5.85508192     15.00998050       7       0       0      -1      24     -1.84616567     -1.77216268     -3.31529663
 N               4.99467098      5.75757668     14.86075974       7       0       0       0      23     -0.94465035     -6.31420763     -0.97104583
 N               7.73779269      5.81908028     14.83881909       7      -1       0       0      22     -6.97918758     -4.72958810     -1.06689141
 N               9.94021303      5.78471101     15.10075798       7      -1       0      -1      21      0.34597185     -4.95362762     -1.56852742
 N              12.40916706      5.56363749     14.73157620       7      -1       0       0      23      2.50682721      1.79010480      3.98721190
 N              14.91114803      5.86738877     14.82436086       7      -1       0       0      22      3.75117934     -2.42613108      3.47737433
 N              -3.71346221      7.84828256     15.02092387       7       0       0      -1      22      0.55208360      4.16115905     -1.37387088
 N              -1.00493309      7.77979753     14.96395071       7       0       0       0      21     -3.04399079     -5.94090653     -1.66111148
 N               1.40723343      7.99534927     15.01048636       7       0       0      -1      23     -4.28853384      2.38160082     -1.92310613
 N               3.72138719      7.94466430     15.23564014       7       0       0      -1      20      2.47427604     -3.16678560     -1.57014211
 N               6.20656579      7.75014938     15.40491565       7      -1       0      -1      23      4.83985181     -2.25459514      0.98871129
 N               8.84269860      8.06790467     14.98532163       7      -1       0       0      23      1.38396328     -2.69762343      5.15825749
 N              11.25995831      7.77905070     14.85259444       7      -1       0       0      23      1.94219358      3.71525788      2.53860308
 N              13.75061046      8.24010427     14.84333603       7      -1       0       0      21      3.78851284     -2.55587502      0.63441519
 N              -5.08279782     10.26708708     15.06438601       7       0      -1      -1      24      3.00330652      2.21277525     -0.61388970
 N              -2.55607445      9.78942181     15.08632558       7       0      -1      -1      20     -0.22909431      0.92353658     -2.07211774
 N               0.00582725      9.83805629     14.92185913       7       0      -1       0      21      1.55486659      5.70162560      0.12972943
 N               2.68366892     10.13977268     14.83236500       7       0      -1       0      22     -9.48794546      5.41400448      0.12629923
 N               7.59925327     10.21488166     15.56557725       7      -1      -1      -1      21      3.94222800      1.42373764     -1.29266487
 N              10.25082989     10.26097855     14.96554597       7      -1      -1       0      23     -2.59371100     -1.80744571      1.66915848
 N              12.72697206     10.23902320     15.15699756       7      -1      -1      -1      22     -2.26051043     -2.57834193     -1.98501309
 N              -6.54679977     12.19142927     14.83204589       7       0      -1       0      21      5.52095345      1.46756416      1.83135277
 N              -3.78469640     12.43634813     15.05508397       7       0      -1      -1      22     -0.73256855     -1.62709051     -0.69663382
 N              -1.38365790     12.44060334     14.88318020       7       0      -1       0      21      5.46729765      5.10168586      0.21218441
 N               1.02515253     12.63765999     14.81059528       7       0      -1       0      21      0.77517706     -8.26832213      1.95238528
 N               3.67599549     12.45086100     14.90902813       7      -1      -1       0      20     -0.47170791     -4.88299310      1.77775977
 N               6.03640698     12.16472547     15.27385413       7      -1      -1      -1      22     10.16895905      5.29123109      1.20542534
 N               8.70810484     12.49555398     14.94457183       7      -1      -1       0      22     -1.79662656     -1.95111825      1.57752442
 N              11.25166537     12.28436014     14.99613600       7      -1      -1       0      23     -9.36289203      0.33924326      0.27413050
 N              -7.43519697     13.92162938     14.78544094       7       0      -1       0      24     -1.55260462     -1.38263646     -1.74347536
 N              -4.98406116     14.59784533     15.06799204       7       0      -1      -1      23     -0.68160271      1.44306624     -1.12233159
 N              -2.43510593     14.42778404     15.08714744       7       0      -1      -1      21      0.54143098      4.78663386     -2.61936388
 N               0.05884814     14.41387699     15.08850901       7       0      -1      -1      23      4.56735615      6.74911147     -0.26203338
 N               2.70450926     14.64444077     15.00551842       7      -1      -1      -1      21     -4.50678668     -6.69412284     -1.62785182
 N               5.13524595     14.33895280     15.07197149       7      -1      -1      -1      22      3.78500859      3.67016575      0.40846471
 N               7.86855856     14.85913769     14.83019762       7      -1      -1       0      22     -3.43018885     -8.77338484      5.06632938
 N              10.21514750     14.40368092     14.78783442       7      -1      -1       0      23     -7.50004269      4.77218992      2.07883344
 N              -9.04543196     16.67656521     14.90782733       7       0      -1       0      23      6.51223039      4.44236190      1.67344039
 N              -6.23161662     16.91193117     14.90399742       7       0      -1       0      22     -0.30490691     -5.47274670      1.55964319
 N              -3.29942142     16.63030862     15.19122812       7       0      -1      -1      23     -8.76144837     -0.01784414     -1.45805661
 N              -1.34786787     16.71182334     14.95967032       7       0      -1       0      23      3.24551496      1.59983958     -0.69608617
 N               0.99680222     16.57173423     15.11274622       7      -1      -1      -1      23      4.47951009      1.65987224     -2.01193682
 N               3.64834013     16.61067062     15.09750834       7      -1      -1      -1      22      0.56696203      3.51962490     -2.73160718
 N               6.38096596     16.42288521     14.86227486       7      -1      -1       0      22      2.60238036      0.19346691      4.25121974
 N               8.69139705     16.96793474     14.88065879       7      -1      -1       0      22      1.14650292     -2.97310095      3.17908565
 B               1.46302520      0.70088567     15.03754894       5       0       0      -1      23     -2.94877378     -1.30927707     -1.53186256
 B               3.51798054      0.73577238     15.05137195       5       0       0      -1      22      1.50286600      8.77011307     -0.90244390
 B               6.32518093      0.51870701     14.73869953       5       0       0       0      23      2.29084420      4.13506930      4.57197982
 B               9.01180761      0.81964048     15.26578850       5       0       0      -1      25     -1.86450900     -1.60045069     -4.43702505
 B              11.35150581      0.75991141     14.70221618       5      -1       0       0      24      1.09864003     -6.53640547      4.95685709
 B              13.43336010      0.85995354     14.79116185       5      -1       0       0      22      3.69300540     -4.08296103      5.46908039
 B              16.58095558      0.59017341     15.25020132       5      -1       0      -1      21     -2.39834419     -0.04477456     -4.28896009
 B              18.97794685      0.98681845     15.18115103       5      -1       0      -1      22     -2.76569653     -3.28220316     -3.68020447
 B               0.19852701      2.59349686     14.72367497       5       0       0       0      24     -3.14654680      1.04599032      3.72451407
 B               2.48773797      3.34042787     14.93874680       5       0       0       0      24      0.44149619     -8.14573538      0.04375996
 B               5.01929738      2.55585133     14.81328473       5       0       0       0      23     -4.62497251      7.54858462      0.73927468
 B               7.48553118      2.90889048     14.92220018       5       0       0       0      23     -0.78675381     -0.56931536      0.14492644
 B              10.08696353      2.96342720     14.65370805       5      -1       0       0      24      0.21033918      3.06440484      7.93966438
 B              12.49922320      2.89060824     14.97335792       5      -1       0       0      22      4.38169933      2.75873251      3.09157164
 B              15.18775104      2.79867885     14.81476802       5      -1       0       0      23     -5.81100218      3.97322848      2.32881340
 B              17.54469655      2.90666179     15.38352338       5      -1       0      -1      22      2.46109947      8.10613750     -3.78510606
 B              -1.44134757      4.80636522     14.92062792       5       0       0       0      23      4.49200024      2.86257771     -0.40337811
 B               0.97097583      5.10502089     14.64184123       5       0       0       0      21     -0.68636288      0.30403209      6.26571719
 B               3.57608456      5.05955730     14.87984321       5       0       0       0      23      6.10647956     -2.63750785      0.00459760
 B               6.32134910      4.98137386     14.87948364       5       0       0       0      23     -2.09865656      0.23724726     -0.91824262
 B               8.73029158      4.97911953     14.61699091       5      -1       0       0      23      5.13576040      2.94692792      5.76741329
 B              11.17914383      5.11349300     14.98001826       5      -1       0       0      23     -0.40985443     -2.65951863      0.57526214
 B              13.86441057      4.92155809     15.28072497       5      -1       0      -1      23     -1.97532088     -0.53219325     -6.53231704
 B              16.55134744      5.16315010     14.88737201       5      -1       0       0      20     -4.53308534     -4.37110403      1.16623290
 B              -2.42900761      7.23193670     14.80606222       5       0       0       0      24      4.34719293      2.19521634      2.82950855
 B               0.18480084      6.98039295     14.95818288       5       0       0       0      23     -1.42060478      7.47627598      0.59602934
 B               2.53482973      7.37864287     14.86009999       5       0       0       0      22      0.22920250     -3.40322295      2.11652176
 B               5.04359757      7.06317609     14.92438995       5       0       0       0      21     -2.36595153      6.57369240      4.16135825
 B               7.68043088      7.05056861     15.39891512       5      -1       0      -1      20     -0.26934326      6.04767758     -4.48646783
 B              10.18689801      7.07641954     15.18160977       5      -1       0      -1      21     -8.37914110      4.98257467     -2.41296889
 B              12.37301498      7.03531224     15.16140514       5      -1       0      -1      22      4.34437825      0.36849916     -4.86162233
 B              15.12844074      7.25335763     15.15552617       5      -1       0      -1      24     -5.63586534      2.19540902     -4.20711095
 B              -3.97188667      9.39045320     14.87063595       5       0      -1       0      23      4.56385847     -1.04829615      3.03544093
 B              -1.14337012      9.07390044     15.01872444       5       0      -1      -1      22     -4.47582975      3.62318709      0.01286634
 B               1.36856196      9.61596591     14.72691001       5       0      -1       0      23     -0.01182198     -7.51193960      2.48790890
 B               3.53802161      9.30970163     15.38105492       5       0      -1      -1      22      6.16650864      0.41668500     -1.42185686
 B               8.95102201      9.49741212     15.38459291       5      -1      -1      -1      21     -3.28183653     -1.98101841     -3.15699618
 B              11.53193417      9.51756312     15.10318461       5      -1      -1      -1      22     -0.19513236     -1.91484675     -1.78022829
 B              13.93526807      9.67737144     14.58294428       5      -1      -1       0      23     -6.04531198     -4.67135950      5.75169887
 B              -5.04672408     11.67773305     15.25675894       5       0      -1      -1      22     -3.71507766      1.44814753     -4.69308668
 B              -2.48711149     11.72701926     14.77431199       5       0      -1       0      24     -3.82860685     -2.99708293      3.10022757
 B              -0.16678708     11.74659331     15.03163503       5       0      -1      -1      22     -1.63342335      0.22651857     -2.43836416
 B               2.16420232     11.64559680     15.20519318       5       0      -1      -1      22      5.47706442      3.24956327     -5.24407468
 B               4.93178450     11.53227407     15.13296387       5      -1      -1      -1      22     -8.23910971     -1.84665963      0.39189053
 B               7.39802854     11.68885898     15.16990187       5      -1      -1      -1      21      0.78948214     -1.58417351      1.21275145
 B               9.98091656     11.60873803     14.80464936       5      -1      -1       0      22      1.89585294      4.96053131      2.61768898
 B              12.18796376     11.55589330     14.82293058       5      -1      -1       0      21     15.01599313     -0.06963617      0.88349731
 B              -6.25467549     13.65263176     15.05691844       5       0      -1      -1      23      3.36890466     -2.63311259     -1.05562564
 B              -3.72485594     13.88118760     14.87449117       5       0      -1       0      22     -0.44067699     -2.07221374      2.91138139
 B              -1.07099687     14.06784491     15.04003636       5       0      -1      -1      21    -11.55690050    -12.28142577     -0.68910628
 B               1.28209856     13.88780208     14.79593698       5       0      -1       0      24      6.16898173      5.46274210      2.00879013
 B               3.86569313     13.76913396     14.99283837       5      -1      -1       0      20     -0.86196232      1.63612838      0.45244162
 B               6.60043117     13.83616181     15.41720275       5      -1      -1      -1      21     -9.28282351     -1.99034246     -6.43655860
 B               8.83232335     13.90383572     15.24585234       5      -1      -1      -1      23      4.90206592      1.44010567     -6.22211070
 B              11.35103942     13.65217582     14.93183071       5      -1      -1       0      23      0.94624790      0.23286774     -0.10749526
 B              -7.60416686     16.36369622     15.37798818       5       0      -1      -1      24     -0.66138210     -0.11847544     -4.34091972
 B              -4.93799909     16.10286493     14.94948948       5       0      -1       0      23      2.72622168     -5.93858288      2.51880618
 B              -2.38087284     15.88128945     14.78654930       5       0      -1       0      23      1.53558814     -5.01516331      1.91628627
 B              -0.18905692     15.92333267     14.89074527       5       0      -1       0      23      1.48789414     -1.40503679      1.83108041
 B               2.41995459     15.88797490     15.18033231       5      -1      -1      -1      22     -0.77614120      6.03093888     -0.96463292
 B               4.87214946     15.88290566     14.79019168       5      -1      -1       0      23      3.09450484     -2.14505273      4.56187411
 B               7.77096127     15.95924516     15.45386971       5      -1      -1      -1      21     -2.99670581      9.29966893     -6.94087796
 B               9.75885397     15.92720903     14.71108850       5      -1      -1       0      23      7.31664523     -2.21906784      0.69414778
