 128
 energy=-553.34088832642976 cutoff=4.00000000 nneightol=1.20000000 pbc="T T T" Lattice="20.07638462       0.00000000       0.00000000     -10.03819231      17.38665923       0.00000000       0.00000000       0.00000000      30.00000000" Properties=species:S:1:pos:R:3:Z:I:1:map_shift:I:3:n_neighb:I:1:force:R:3
 Ti              6.33301653      9.42748902     16.38282969      22      -1      -1      -1      18     -0.60754421      0.42471112     -0.10330917
 N               4.74303008     10.19490434     15.34804748       7      -1      -1      -1      20      3.36515528     -4.60720540      3.36126544
 N               0.35072229      1.22527030     15.02519900       7       0       0      -1      21    -10.33380546      2.02218637      1.60309241
 N               2.20514368      1.72606661     14.94065231       7       0       0       0      22      7.91034718     -0.20191268     -0.02476630
 N               4.92125968      1.14843061     15.04497022       7       0       0      -1      22      0.04111488      2.44651143     -2.36472634
 N               7.55694926      1.46944450     14.92900921       7       0       0       0      24      1.13747009     -0.80071874     -0.40086208
 N              10.33971987      1.39315320     15.20665719       7      -1       0      -1      24     -3.48510784      2.17323114     -4.88145699
 N              12.36334315      1.45369743     15.32943338       7      -1       0      -1      22      1.03775704      3.69559330     -5.31686236
 N              14.67325209      1.58992298     15.07721385       7      -1       0      -1      22     -1.54189859      1.11212988     -2.35028222
 N              17.55699408      1.80720221     14.73495238       7      -1       0       0      23      1.58488496     -4.40589061      6.29630188
 N              -1.20137128      3.40584368     14.92316374       7       0       0       0      22     -1.47150961      1.43964249      0.92755971
 N               1.20477017      3.68416536     15.09082766       7       0       0      -1      24      1.48789534     -2.82447125     -3.95064876
 N               3.82372999      3.62031602     14.86299077       7       0       0       0      23      0.84027831     -0.41890196     -0.38319958
 N               6.17475379      3.44175402     14.83500601       7       0       0       0      23     -0.00946375      3.33516192     -0.45362321
 N               8.80377843      3.72601503     15.15703063       7      -1       0      -1      23     -1.00869747     -2.80206063     -6.07094692
 N              11.36772939      3.77647130     15.22143509       7      -1       0      -1      24     -1.20059627     -3.82572847     -4.46800752
 N              13.88866612      3.45507918     15.02401889       7      -1       0      -1      22     -2.78377146      5.27786604      0.07941634
 N              16.38470754      3.56286824     15.02915847       7      -1       0      -1      21     -2.70292332      3.78240530      0.69848420
 N              -2.45130353      5.89504055     15.03732098       7       0       0      -1      24      2.63076280     -2.59186305     -1.31244325
 N              -0.27401851      5.72545086     15.03341297       7       0       0      -1      21      1.11969652      1.21991406     -2.12552532
 N               2.45887303      5.89245411     15.04800077       7       0       0      -1      24     -1.22588126     -2.78940260     -3.11842288
 N               4.93035827      5.68650984     14.88431339       7       0       0       0      21      2.24276872      2.48357191     -0.73710917
 N               7.72720629      5.79205691     14.84641150       7      -1       0       0      23     -4.15910040     -0.79977290      0.14423881
 N               9.92590717      5.76683188     15.06119057       7      -1       0      -1      22      0.13282290     -2.20771068     -0.69968038
 N              12.48567584      5.60766990     14.69099175       7      -1       0       0      23     -1.67228305      1.48241127      6.43377289
 N              14.96371027      5.90717069     14.80275921       7      -1       0       0      22     -0.12137134     -2.61948425      4.96671225
 N              -3.77205933      7.87848439     15.03866603       7       0       0      -1      23      1.94048192      1.55877722     -1.38381925
 N              -0.99796554      7.72372678     14.98338902       7       0       0       0      21     -6.73935386      4.99834685     -1.65946861
 N               1.18916128      8.09778907     15.02908876       7       0       0      -1      23      8.24682316     -3.85074651     -1.85690501
 N               3.81638780      7.99447717     15.20552070       7       0       0      -1      22     -2.66594541     -4.51337348     -2.11544702
 N               6.23222959      7.77245222     15.41227399       7      -1       0      -1      23      1.62338450     -2.36588553      0.69853839
 N               8.96169846      7.98305925     14.94755794       7      -1       0       0      22     -3.85046593     -0.07709019      5.62550739
 N              11.19409506      7.92691738     14.81804695       7      -1       0       0      24      4.12551228     -2.41959015      5.20539416
 N              13.85246563      8.19601991     14.85473543       7      -1       0       0      22     -0.30620378     -4.21436338      1.39039187
 N              -5.07720095     10.31141214     15.09295511       7       0      -1      -1      24      1.40693289     -4.47709000     -3.18482641
 N              -2.59555647      9.98322506     15.11359582       7       0      -1      -1      24      2.63103169      0.93298749     -3.49852258
 N               0.01906031      9.86966507     14.92197927       7       0      -1       0      22     -0.20415088      3.37506398     -0.35579225
 N               2.66159476     10.08893243     14.82015380       7       0      -1       0      22     -3.45055199      3.49028367      1.63307737
 N               7.48000953     10.16363092     15.53480049       7      -1      -1      -1      23      8.50843942      2.78050344     -0.70871270
 N              10.19530145     10.15333528     14.95010507       7      -1      -1       0      22     -1.14898241      3.69891123      1.53245325
 N              12.74422088     10.29794846     15.12824653       7      -1      -1      -1      23     -3.50081280     -5.38520876     -2.08713912
 N              -6.51142461     12.17999538     14.88777627       7       0      -1       0      22      3.70263663      0.29853256      0.76736141
 N              -3.77184338     12.40298313     15.05232763       7       0      -1      -1      22      0.15570627     -0.48625761     -1.39613198
 N              -1.25678603     12.54426933     14.93975214       7       0      -1       0      22     -4.41965472     -2.34765722     -1.15048585
 N               0.97587398     12.61417202     14.82229716       7       0      -1       0      21      5.54140025     -6.74550363      1.27774610
 N               3.84425114     12.38054568     14.93486346       7      -1      -1       0      22     -4.48482435     -1.00757804      0.88416007
 N               6.07299349     12.10382283     15.21048978       7      -1      -1      -1      22      5.30374108      5.43415888      1.63730179
 N               8.79499531     12.44088818     14.89732219       7      -1      -1       0      23     -2.67218852     -0.28080095      2.38987819
 N              11.24017364     12.33533017     14.97295278       7      -1      -1       0      23     -1.61754456     -3.85781485     -0.27862060
 N              -7.48411462     14.10032466     14.80737070       7       0      -1       0      22      0.95829933     -1.10603860      0.34514248
 N              -5.07984273     14.57794497     15.10250178       7       0      -1      -1      23      4.38391688     -0.50159391     -2.05917621
 N              -2.35888811     14.44323906     15.08975567       7       0      -1      -1      22     -7.65741929      3.28739843     -2.39717707
 N               0.07079433     14.35406408     15.04991228       7       0      -1      -1      24     -1.91015528      5.01367215     -0.16846155
 N               2.54200572     14.59847528     15.00205625       7      -1      -1      -1      23      0.83653123     -2.87848676     -0.96842639
 N               5.14697162     14.38196229     15.04105396       7      -1      -1      -1      21      1.20435751      0.51565478      0.76339878
 N               7.71937024     14.77513156     14.72099783       7      -1      -1       0      21      3.89556851     -1.34120040     10.69803402
 N              10.17349628     14.39333453     14.77951789       7      -1      -1       0      23     -4.95247291      3.08080523      3.24068725
 N              -8.98945324     16.83541155     14.91261899       7       0      -1       0      22      0.48663503     -6.66948821      2.00509075
 N              -6.23067210     16.78481150     14.92801679       7       0      -1       0      22     -0.52637118      1.86957392      1.98972282
 N              -3.48077758     16.64935301     15.18464871       7       0      -1      -1      22     -1.20899155     -2.24622428     -4.36036114
 N              -1.41558175     16.71941661     14.99266652       7       0      -1       0      24      4.77075362     -1.42011118     -0.95425301
 N               1.20551245     16.70171965     15.13578102       7      -1      -1      -1      23     -4.41225009     -2.67446949     -2.85361605
 N               3.57415145     16.54328951     15.12121288       7      -1      -1      -1      22      6.66664962      4.96587077     -3.54182559
 N               6.44382851     16.41480663     14.84933519       7      -1      -1       0      21     -0.19642965      2.55420757      5.22059607
 N               8.66297031     16.83123787     14.83547091       7      -1      -1       0      22      1.59751639      2.22549619      4.97554256
 B               1.43710465      0.71882222     15.03950919       5       0       0      -1      23     -1.34947995     -3.47972813     -0.45046086
 B               3.51353995      0.82686306     15.06301189       5       0       0      -1      21      6.01650149     -3.97912541     -1.11046188
 B               6.38899837      0.60776391     14.70483899       5       0       0       0      24     -1.19404740      0.78008543      5.37497000
 B               8.89373302      0.85313109     15.25505763       5       0       0      -1      24      1.30651201     -3.01612440     -3.81763904
 B              11.44280971      0.63586830     14.70695578       5      -1       0       0      23     -4.29215774      0.18982891      5.85800738
 B              13.49054573      0.94118068     14.72527588       5      -1       0       0      21      3.48469626     -3.33435433      6.21662319
 B              16.56533539      0.66097216     15.31685841       5      -1       0      -1      22     -2.70027022     -1.08251658     -6.63168634
 B              18.88063918      0.83743754     15.24800051       5      -1       0      -1      23      2.63652250      2.38965026     -6.13661577
 B               0.19684040      2.58087078     14.71846578       5       0       0       0      24     -4.48535083      5.34184729      4.23406664
 B               2.65056842      3.04927089     14.92784170       5       0       0       0      24     -8.32937322      1.66663996      0.72156897
 B               4.93424228      2.67593561     14.81655038       5       0       0       0      21      2.26971265     -0.42803499      1.33000913
 B               7.42990717      2.87753949     14.89285606       5       0       0       0      23      2.18185212      0.68018265      1.29811025
 B              10.00703152      2.91651989     14.55288017       5      -1       0       0      23      2.24655648      1.87908237     10.18577951
 B              12.57820859      2.90594915     14.87396982       5      -1       0       0      22     -0.25881225      1.10272673      5.58065161
 B              15.14242635      2.88351632     14.82859010       5      -1       0       0      22     -1.84215179     -1.08591010      2.61694830
 B              17.54416884      3.09574246     15.33133391       5      -1       0      -1      22      5.54317821     -4.99975744     -4.20962208
 B              -1.40231729      4.91565369     14.92053731       5       0       0       0      23      2.40035354     -1.59022512      0.30477891
 B               0.89332475      5.04318455     14.64416545       5       0       0       0      23      4.26649753      0.34056585      5.39196693
 B               3.63544428      5.05582258     14.87349967       5       0       0       0      24      1.57820916     -0.07613426      0.54596784
 B               6.40578649      5.09941703     14.90158436       5       0       0       0      23     -3.07470550     -3.02887884     -1.03063592
 B               8.84715205      5.03422294     14.61060825       5      -1       0       0      22     -0.82420617      0.20737649      5.28270906
 B              11.05971340      5.06934880     14.99778642       5      -1       0       0      22      7.29831566      0.31581459     -0.55154606
 B              13.81740651      5.05463075     15.39119461       5      -1       0      -1      22      0.74689165     -3.94434552    -10.13866893
 B              16.59936867      4.96986917     14.92739503       5      -1       0       0      23     -5.40629947      2.90457150      0.30698493
 B              -2.36701367      7.31769312     14.79386800       5       0       0       0      23     -2.30365370     -1.14943151      3.36351299
 B               0.18457644      7.19242233     14.94327750       5       0       0       0      21     -1.41865340     -3.23650899      0.81067004
 B               2.58864864      7.23048200     14.83118373       5       0       0       0      22     -3.79004852      4.22415072      3.63268029
 B               4.96761277      7.20816904     14.92539181       5       0       0       0      21      0.48595857     -2.54291494      3.60964090
 B               7.52265706      7.09998977     15.45007481       5      -1       0      -1      22      2.41560218      1.76651665     -6.22174840
 B              10.00593581      7.07059188     15.20118979       5      -1       0      -1      21      1.07562850      7.40725772     -3.56555871
 B              12.48866966      7.06084922     15.24610281       5      -1       0      -1      22     -3.00418959      1.64086405     -7.54227713
 B              14.97829851      7.27860668     15.18839099       5      -1       0      -1      23      1.15172816      1.82612594     -5.07277605
 B              -3.86981639      9.27780991     14.83283526       5       0      -1       0      21     -1.11900550      3.91987610      4.09650873
 B              -1.23824915      9.21155750     14.98309962       5       0      -1       0      22      0.77331538     -1.82998363      0.68686310
 B               1.42691276      9.45330015     14.76495933       5       0      -1       0      24     -5.41454042     -1.04872209      1.83750117
 B               3.72819976      9.35343569     15.36358919       5       0      -1      -1      23     -3.24460767      0.79717876     -2.76944638
 B               8.95900405      9.55386249     15.38538738       5      -1      -1      -1      21     -1.12051907     -2.70010962     -3.79755645
 B              11.44454433      9.40112619     15.10129323       5      -1      -1      -1      22      1.25432755      1.84733517     -2.21150980
 B              13.87595673      9.60911907     14.55119598       5      -1      -1       0      22     -0.66691795     -2.44154117      7.70121955
 B              -5.20571851     11.66415195     15.23276307       5       0      -1      -1      22      3.14033452      0.95573605     -3.46578363
 B              -2.39935661     11.50048859     14.78094889       5       0      -1       0      24     -3.55219793      2.83238334      4.20563063
 B              -0.14265902     11.87079500     15.02678029       5       0      -1      -1      21      1.21452423     -5.72869297     -1.06614488
 B               2.27129729     11.58955292     15.23802103       5       0      -1      -1      22      0.82726766      2.23044123     -5.80536886
 B               4.86501439     11.45515947     15.15751836       5      -1      -1      -1      22     -0.76347026      5.87526388     -0.40396682
 B               7.40102944     11.75901191     15.16391963       5      -1      -1      -1      22      1.28528396     -3.26647907      0.19479222
 B              10.02530293     11.69048134     14.80661772       5      -1      -1       0      22      1.63485531     -1.77153016      2.21331202
 B              12.38085749     11.57742351     14.84886795       5      -1      -1       0      21      0.67326412      0.64130122      1.36123693
 B              -6.22707045     13.53923843     15.07211130       5       0      -1      -1      22     -1.35322175      5.53722542     -1.29287988
 B              -3.73280778     13.93453016     14.82409974       5       0      -1       0      22     -0.36724804     -4.32867533      4.45971985
 B              -1.19521267     13.90864292     15.01280676       5       0      -1      -1      22      2.73061251     -4.93987250      0.06014620
 B               1.29996162     13.88188049     14.81932240       5       0      -1       0      24      4.50589740      2.14981653      1.51142808
 B               3.90237388     13.73349316     14.97485756       5      -1      -1       0      22     -3.73448326      2.52559667      0.63301564
 B               6.48969314     13.91304045     15.42265951       5      -1      -1      -1      21     -7.56436531     -2.27739062     -6.55516254
 B               8.92271044     13.84536547     15.29845625       5      -1      -1      -1      22     -0.66580994      2.46814358     -8.11859858
 B              11.35329143     13.66592526     14.93435323       5      -1      -1       0      23      0.21956839      1.38533812     -0.55971990
 B              -7.55104488     16.18273285     15.38257111       5       0      -1      -1      24     -1.06223474      3.68884454     -5.61846525
 B              -4.83095421     16.09446253     14.91539184       5       0      -1       0      23     -2.62418992     -0.82321101      3.29271545
 B              -2.36476534     15.79362061     14.77046155       5       0      -1       0      23     -2.96766761      2.90406666      3.73216873
 B              -0.13232494     15.80178837     14.88456440       5       0      -1       0      22      0.73237105      6.04080761      2.44225193
 B               2.37911201     16.06975366     15.12820222       5      -1      -1      -1      22      0.27816102     -5.55350042     -0.18170060
 B               4.85257582     15.77218430     14.77846865       5      -1      -1       0      21      2.66635708      3.60108029      4.30865774
 B               7.68540600     16.09070318     15.49284031       5      -1      -1      -1      23     -2.78335016     -2.39346157    -10.10653783
 B               9.67813182     15.79312655     14.82869310       5      -1      -1       0      22     10.96782341      2.79955421     -2.02010405
