 128
 energy=-555.09369596117403 cutoff=4.00000000 nneightol=1.20000000 pbc="T T T" Lattice="20.07638462       0.00000000       0.00000000     -10.03819231      17.38665923       0.00000000       0.00000000       0.00000000      30.00000000" Properties=species:S:1:pos:R:3:Z:I:1:map_shift:I:3:n_neighb:I:1:force:R:3
 Ti              6.34181591      9.43403641     16.39041332      22      -1      -1      -1      18     -0.93132502     -0.09328395     -0.35678031
 N               4.77731432     10.12650596     15.37371090       7      -1      -1      -1      21      0.39271530     -0.82468083      2.37345860
 N               0.31020114      1.18311374     15.05572684       7       0       0      -1      22     -7.01288546      2.90056808      1.42486267
 N               2.22796103      1.75281368     14.92934968       7       0       0       0      22      8.09089226      0.00666352      0.02848877
 N               4.89736171      1.12751935     15.03891364       7       0       0      -1      22      1.06469925     -0.69650630     -1.95420294
 N               7.60285820      1.48979450     14.90665910       7       0       0       0      24      0.27716077     -1.64544244      0.02157284
 N              10.37248044      1.39983536     15.18910186       7      -1       0      -1      24     -4.59346989      4.07618603     -3.71977496
 N              12.33772368      1.51824340     15.35629161       7      -1       0      -1      23      0.46260860      0.98602256     -4.92334154
 N              14.58672451      1.63186604     15.06948022       7      -1       0      -1      22     -2.51858725     -0.12297280     -2.38547925
 N              17.58204837      1.86020038     14.74424561       7      -1       0       0      24      1.41686974     -7.02894758      4.41706306
 N              -1.11248011      3.38672980     14.90317602       7       0       0       0      22     -7.14549355      1.00934592      1.80843606
 N               1.20175837      3.63640300     15.07964004       7       0       0      -1      24     -0.08398031      1.11891690     -3.58817294
 N               3.81354294      3.59984245     14.85267964       7       0       0       0      22      2.12228093      0.88991781     -0.34781734
 N               6.11726603      3.44744324     14.80912436       7       0       0       0      23      3.98479882      2.37784666     -0.01181014
 N               8.78300021      3.70754824     15.15223054       7      -1       0      -1      23     -0.87970745     -2.45261975     -5.57186599
 N              11.37434567      3.74911191     15.20289634       7      -1       0      -1      23     -4.12222521     -1.40662879     -4.21955747
 N              13.88957216      3.49867411     15.03388598       7      -1       0      -1      22     -2.50722925      1.88883364     -0.30916843
 N              16.32462494      3.54921341     15.03626259       7      -1       0      -1      22      3.72786301      4.79316062      1.47715550
 N              -2.38471291      5.87330625     15.03777597       7       0       0      -1      23      0.80231422     -2.13945849     -1.11807838
 N              -0.35234088      5.74818961     15.03576363       7       0       0      -1      22      1.43648716     -2.70343675     -2.37029741
 N               2.41709077      5.87425189     15.03242958       7       0       0      -1      24     -1.71756542     -1.91729811     -3.56272751
 N               4.96842576      5.73375592     14.87204048       7       0       0       0      22      0.00876003     -2.87252741     -0.91927553
 N               7.74640367      5.81529997     14.84304506       7      -1       0       0      22     -6.48749770     -3.75612216     -0.68034776
 N               9.93584076      5.78891180     15.08795153       7      -1       0      -1      22     -0.72249844     -5.91989900     -1.54860685
 N              12.44058793      5.57855930     14.70394763       7      -1       0       0      22     -0.27008488      1.25595960      5.39943605
 N              14.92845971      5.88881148     14.80660475       7      -1       0       0      22      2.04042075     -2.69217243      4.34705110
 N              -3.73968762      7.85337813     15.03115793       7       0       0      -1      22      1.24217860      3.68292780     -1.54134459
 N              -0.99087520      7.75835225     14.97543222       7       0       0       0      21     -5.24967696     -1.22099157     -1.80941620
 N               1.31377364      8.03860098     15.02307634       7       0       0      -1      23      2.33655548     -0.76546451     -2.58087809
 N               3.75908748      7.97450902     15.22810561       7       0       0      -1      22      0.47836926     -4.81798044     -2.19186772
 N               6.20868566      7.76530382     15.40592876       7      -1       0      -1      23      4.26944739     -3.10292740      0.96371686
 N               8.89170344      8.03775884     14.95784767       7      -1       0       0      22     -0.32147913     -2.00792810      6.03647587
 N              11.22620827      7.83683442     14.82959534       7      -1       0       0      24      3.53817621      1.02983462      4.34522043
 N              13.78513400      8.23014698     14.84563725       7      -1       0       0      21      3.39747660     -3.61829295      1.04117535
 N              -5.08625005     10.28759115     15.07991843       7       0      -1      -1      24      2.93580495     -0.91254090     -1.81910592
 N              -2.57351993      9.86303291     15.10356405       7       0      -1      -1      21      0.50086041      1.94462445     -2.98934325
 N               0.00868934      9.84058179     14.92224722       7       0      -1       0      21      1.37402672      5.09500905     -0.13918575
 N               2.68993394     10.10913173     14.82622547       7       0      -1       0      22     -7.85588474      5.21020057      0.45311170
 N               7.53977635     10.19077628     15.55567386       7      -1      -1      -1      23      5.20123260      1.60972992     -1.23445065
 N              10.23340619     10.21521852     14.95586891       7      -1      -1       0      23     -2.47452377      1.00444530      1.71461181
 N              12.74059369     10.27139521     15.15000115       7      -1      -1      -1      22     -3.24112963     -4.11683327     -2.19612573
 N              -6.54264028     12.18589800     14.85122097       7       0      -1       0      21      4.99122433      0.52867759      1.60478411
 N              -3.77898749     12.42552315     15.05627868       7       0      -1      -1      22     -0.33585831     -1.32679980     -1.07507360
 N              -1.33541242     12.47558338     14.90669348       7       0      -1       0      21      2.01964503      3.86405615     -0.32624891
 N               0.99947273     12.64717207     14.81171057       7       0      -1       0      21      2.54645412     -9.46134229      1.79639084
 N               3.74660790     12.43093191     14.91630395       7      -1      -1       0      22     -1.22738248     -4.35113466      1.54986083
 N               6.03099626     12.12802543     15.24531629       7      -1      -1      -1      22     10.34176276      6.09748682      1.54365225
 N               8.74710189     12.47607997     14.92143169       7      -1      -1       0      22     -1.95861332     -1.25681464      2.01074263
 N              11.26239838     12.30875928     14.98683545       7      -1      -1       0      24     -8.21898181     -1.62450606      0.06434571
 N              -7.45438318     13.99605621     14.79605337       7       0      -1       0      23     -0.33698586     -1.47456118     -1.05674153
 N              -5.02586990     14.58814527     15.08525177       7       0      -1      -1      23      1.28700829      1.09706371     -1.61974761
 N              -2.39648493     14.42364135     15.09379828       7       0      -1      -1      21     -3.39311286      5.19679612     -2.76053221
 N               0.05985341     14.37608451     15.07328087       7       0      -1      -1      23      2.38608352      6.96998522     -0.09146560
 N               2.64458502     14.63778177     15.00712658       7      -1      -1      -1      21     -2.82019611     -6.03239114     -1.50787204
 N               5.13269185     14.35094399     15.05817293       7      -1      -1      -1      22      3.78941352      2.79207375      0.67597744
 N               7.80775658     14.83658090     14.76848273       7      -1      -1       0      21     -0.03701391     -5.95689842      8.46918780
 N              10.21459036     14.39049674     14.77841902       7      -1      -1       0      23     -8.14155846      4.53078594      2.90216741
 N              -9.03067278     16.74101177     14.90564310       7       0      -1       0      23      4.23590973      0.44085223      1.98756665
 N              -6.23045355     16.86475348     14.90978524       7       0      -1       0      22     -0.36972598     -2.25221565      1.82633910
 N              -3.36035701     16.64128543     15.19518948       7       0      -1      -1      23     -6.17743812     -1.52628153     -3.02852209
 N              -1.38374590     16.71475379     14.97461186       7       0      -1       0      23      4.19139169      0.23880409     -0.82707009
 N               1.07941566     16.62497022     15.12803397       7      -1      -1      -1      23      0.97998737     -0.40662499     -2.94282846
 N               3.61058030     16.57449292     15.11383745       7      -1      -1      -1      22      3.52798559      4.42847588     -3.29320938
 N               6.40228616     16.41720450     14.84643607       7      -1      -1       0      22      2.06566348      1.04332499      5.13583278
 N               8.67880842     16.91303874     14.85325561       7      -1      -1       0      22      0.47319509     -0.19164834      4.45422199
 B               1.45894338      0.71731539     15.04121683       5       0       0      -1      23     -2.47999121     -3.42411130     -1.16594536
 B               3.50578279      0.76537309     15.05894260       5       0       0      -1      22      3.61354244      3.43561241     -1.08385381
 B               6.34732308      0.54569976     14.71105686       5       0       0       0      23      1.56083166      3.52833533      5.25203873
 B               8.96567076      0.83976416     15.27309764       5       0       0      -1      24     -0.61061561     -2.46221842     -4.40142695
 B              11.39257892      0.72240303     14.68810515       5      -1       0       0      24     -1.35078302     -5.11548477      5.97562399
 B              13.44428079      0.90349954     14.74841119       5      -1       0       0      21      4.63138417     -4.30461035      6.11655234
 B              16.58375833      0.61916179     15.29146933       5      -1       0      -1      22     -3.45014052     -0.18390062     -5.30948602
 B              18.93663466      0.92541557     15.22183145       5      -1       0      -1      23      0.71245274      0.27248140     -5.07350410
 B               0.20832319      2.57954404     14.71032623       5       0       0       0      25     -3.83887807      3.03694605      4.20640004
 B               2.56706994      3.23650042     14.93286980       5       0       0       0      23     -4.84423626     -5.51239792      0.54432962
 B               4.99041239      2.59027533     14.81185353       5       0       0       0      22     -2.48503986      5.83661458      0.97700580
 B               7.46215132      2.89596573     14.90829624       5       0       0       0      24      0.19698658      0.08187273      0.74792263
 B              10.05204698      2.93539637     14.58814540       5      -1       0       0      24      0.93891229      3.73347170      9.33839861
 B              12.52364737      2.89016412     14.92102326       5      -1       0       0      22      3.05323616      2.63338683      4.58318063
 B              15.18169022      2.82830389     14.81364879       5      -1       0       0      23     -4.82675792      1.94625895      2.45964554
 B              17.53248946      2.97652124     15.37512763       5      -1       0      -1      22      4.26780533      3.14982924     -4.71151040
 B              -1.43706108      4.85169239     14.92078108       5       0       0       0      23      4.45223375     -0.34990746     -0.13568868
 B               0.93632067      5.07893018     14.62570856       5       0       0       0      22      0.92283074      0.57686081      6.51070597
 B               3.58815178      5.06196679     14.87641732       5       0       0       0      23      4.88783288     -1.76790944      0.29935174
 B               6.36162527      5.03240723     14.89104137       5       0       0       0      23     -2.36551328     -1.23618315     -1.01312969
 B               8.76856549      4.99564124     14.59830969       5      -1       0       0      23      3.66499967      2.29625950      6.11739074
 B              11.11972421      5.09925974     14.98749726       5      -1       0       0      22      3.99003814     -1.46906811     -0.08886860
 B              13.84731608      4.98317970     15.34862697       5      -1       0      -1      23     -0.83358376     -3.05249149     -8.69876380
 B              16.58521211      5.09122525     14.90146970       5      -1       0       0      23     -5.50505556     -2.64177569      0.76343149
 B              -2.40833843      7.26354482     14.79240571       5       0       0       0      24      2.11724586      1.25012417      3.26377540
 B               0.18787177      7.05721553     14.94988767       5       0       0       0      22     -1.32267247      3.89648150      0.88469946
 B               2.56500360      7.31605526     14.83953532       5       0       0       0      22     -3.20697798      0.88395818      3.33458332
 B               5.01640181      7.11316384     14.91335775       5       0       0       0      21     -1.39410403      3.71906287      4.35058814
 B               7.61415263      7.05770171     15.43439296       5      -1       0      -1      20      1.07308321      5.12129152     -5.52771272
 B              10.12735407      7.05172020     15.19821039       5      -1       0      -1      21     -5.54657594      8.44887039     -3.23088140
 B              12.41912662      7.04190203     15.21320760       5      -1       0      -1      22      0.49640168      1.35083778     -6.59726579
 B              15.07652816      7.25598486     15.18197847       5      -1       0      -1      23     -3.54690515      2.89376883     -4.94296989
 B              -3.93470111      9.34192343     14.84510489       5       0      -1       0      21      1.68021507      0.96811394      3.86690635
 B              -1.17489839      9.12788927     15.00363746       5       0      -1      -1      22     -2.83232344      0.74449275      0.26243780
 B               1.39959390      9.56674394     14.73560529       5       0      -1       0      23     -2.48893661     -6.52558465      2.50651418
 B               3.60475041      9.32403690     15.37897662       5       0      -1      -1      22      4.54447669      1.23957691     -1.68884541
 B               8.96308656      9.52855377     15.39451018       5      -1      -1      -1      21     -3.65953600     -3.31524957     -3.55046874
 B              11.49340015      9.47207278     15.10822789       5      -1      -1      -1      22      1.37455461     -0.67548176     -2.15540901
 B              13.92161483      9.66065239     14.55131608       5      -1      -1       0      22     -4.18303540     -4.13512832      6.98472936
 B              -5.10705960     11.66718637     15.25916913       5       0      -1      -1      22     -1.74316507      2.03151260     -4.62244200
 B              -2.44245037     11.63969043     14.76630209       5       0      -1       0      24     -3.58438464     -1.83732596      3.93351663
 B              -0.15516960     11.79847748     15.03485026       5       0      -1      -1      21     -1.03516257     -0.45294091     -2.03507472
 B               2.19844792     11.61508856     15.23358452       5       0      -1      -1      22      3.51801265      3.12284974     -5.69226274
 B               4.92310247     11.49728564     15.14317176       5      -1      -1      -1      22     -7.54331720      0.90014185     -0.10705938
 B               7.39792352     11.72396389     15.16556355       5      -1      -1      -1      22      0.37996963     -2.56535422      0.79901000
 B               9.99149942     11.63651555     14.79846031       5      -1      -1       0      22      2.80777185      2.29991779      2.65841507
 B              12.23536756     11.56281852     14.83060640       5      -1      -1       0      21     12.52414373      0.57458982      0.94138144
 B              -6.24585048     13.60504606     15.06636622       5       0      -1      -1      22      1.13071650      0.17385478     -1.25726443
 B              -3.72729616     13.91235852     14.84403566       5       0      -1       0      21     -0.25840122     -3.60494291      3.76742687
 B              -1.10775557     14.03229558     15.03011537       5       0      -1      -1      22     -5.75694777    -11.04759997     -0.40603455
 B               1.27010295     13.87045411     14.80043234       5       0      -1       0      24      7.43734504      6.04505207      1.84679537
 B               3.88825651     13.74746861     14.98410858       5      -1      -1       0      22     -2.86753478      2.80615877      0.56934195
 B               6.58388413     13.87219199     15.43759835       5      -1      -1      -1      21    -10.72739372     -2.00254239     -6.82877666
 B               8.86142844     13.87276784     15.28817659       5      -1      -1      -1      23      3.01751894      2.94452010     -7.93006490
 B              11.34842220     13.65536173     14.93356649       5      -1      -1       0      23      1.46850099      0.77993186     -0.23168531
 B              -7.58034261     16.28459165     15.39315103       5       0      -1      -1      23     -0.96015122      2.36049531     -4.89453641
 B              -4.89881356     16.11109124     14.92722734       5       0      -1       0      23      1.89184113     -4.82315353      3.20863161
 B              -2.37242616     15.85066391     14.77179326       5       0      -1       0      23     -0.39563042     -2.29576106      3.02574811
 B              -0.17041948     15.87236202     14.88175694       5       0      -1       0      23      1.61745615      0.44207660      2.42500471
 B               2.40911287     15.95984155     15.16113207       5      -1      -1      -1      22     -2.53692047      1.01420283     -0.68332871
 B               4.85617236     15.83806367     14.77265595       5      -1      -1       0      23      3.08673973     -0.24063434      4.86922774
 B               7.74572099     16.00234163     15.49532132       5      -1      -1      -1      23     -3.36857000      4.29264831     -9.58099154
 B               9.69557723     15.87572746     14.76111334       5      -1      -1       0      23     11.70454888     -1.20310339     -1.00003178
